 Entering Gaussian System, Link 0=g09
 Input=sn2_ts_irc.gjf
 Output=sn2_ts_irc.log
 Initial command:
 /home/xinyan/g09/l1.exe "/home/xinyan/scratch/Gau-3322.inp" -scrdir="/home/xinyan/scratch/"
 Entering Link 1 = /home/xinyan/g09/l1.exe PID=      3324.
  
 Copyright (c) 1988,1990,1992,1993,1995,1998,2003,2009,2013,
            Gaussian, Inc.  All Rights Reserved.
  
 This is part of the Gaussian(R) 09 program.  It is based on
 the Gaussian(R) 03 system (copyright 2003, Gaussian, Inc.),
 the Gaussian(R) 98 system (copyright 1998, Gaussian, Inc.),
 the Gaussian(R) 94 system (copyright 1995, Gaussian, Inc.),
 the Gaussian 92(TM) system (copyright 1992, Gaussian, Inc.),
 the Gaussian 90(TM) system (copyright 1990, Gaussian, Inc.),
 the Gaussian 88(TM) system (copyright 1988, Gaussian, Inc.),
 the Gaussian 86(TM) system (copyright 1986, Carnegie Mellon
 University), and the Gaussian 82(TM) system (copyright 1983,
 Carnegie Mellon University). Gaussian is a federally registered
 trademark of Gaussian, Inc.
  
 This software contains proprietary and confidential information,
 including trade secrets, belonging to Gaussian, Inc.
  
 This software is provided under written license and may be
 used, copied, transmitted, or stored only in accord with that
 written license.
  
 The following legend is applicable only to US Government
 contracts under FAR:
  
                    RESTRICTED RIGHTS LEGEND
  
 Use, reproduction and disclosure by the US Government is
 subject to restrictions as set forth in subparagraphs (a)
 and (c) of the Commercial Computer Software - Restricted
 Rights clause in FAR 52.227-19.
  
 Gaussian, Inc.
 340 Quinnipiac St., Bldg. 40, Wallingford CT 06492
  
  
 ---------------------------------------------------------------
 Warning -- This program may not be used in any manner that
 competes with the business of Gaussian, Inc. or will provide
 assistance to any competitor of Gaussian, Inc.  The licensee
 of this program is prohibited from giving any competitor of
 Gaussian, Inc. access to this program.  By using this program,
 the user acknowledges that Gaussian, Inc. is engaged in the
 business of creating and licensing software in the field of
 computational chemistry and represents and warrants to the
 licensee that it is not a competitor of Gaussian, Inc. and that
 it will not use this program in any manner prohibited above.
 ---------------------------------------------------------------
  

 Cite this work as:
 Gaussian 09, Revision D.01,
 M. J. Frisch, G. W. Trucks, H. B. Schlegel, G. E. Scuseria, 
 M. A. Robb, J. R. Cheeseman, G. Scalmani, V. Barone, B. Mennucci, 
 G. A. Petersson, H. Nakatsuji, M. Caricato, X. Li, H. P. Hratchian, 
 A. F. Izmaylov, J. Bloino, G. Zheng, J. L. Sonnenberg, M. Hada, 
 M. Ehara, K. Toyota, R. Fukuda, J. Hasegawa, M. Ishida, T. Nakajima, 
 Y. Honda, O. Kitao, H. Nakai, T. Vreven, J. A. Montgomery, Jr., 
 J. E. Peralta, F. Ogliaro, M. Bearpark, J. J. Heyd, E. Brothers, 
 K. N. Kudin, V. N. Staroverov, T. Keith, R. Kobayashi, J. Normand, 
 K. Raghavachari, A. Rendell, J. C. Burant, S. S. Iyengar, J. Tomasi, 
 M. Cossi, N. Rega, J. M. Millam, M. Klene, J. E. Knox, J. B. Cross, 
 V. Bakken, C. Adamo, J. Jaramillo, R. Gomperts, R. E. Stratmann, 
 O. Yazyev, A. J. Austin, R. Cammi, C. Pomelli, J. W. Ochterski, 
 R. L. Martin, K. Morokuma, V. G. Zakrzewski, G. A. Voth, 
 P. Salvador, J. J. Dannenberg, S. Dapprich, A. D. Daniels, 
 O. Farkas, J. B. Foresman, J. V. Ortiz, J. Cioslowski, 
 and D. J. Fox, Gaussian, Inc., Wallingford CT, 2013.
 
 ******************************************
 Gaussian 09:  ES64L-G09RevD.01 24-Apr-2013
                25-Mar-2019 
 ******************************************
 %nproc=4
 Will use up to    4 processors via shared memory.
 %mem=1000mw
 --------------------------------------------------------------
 #p B3LYP/6-31G* em=gd3 irc(calcfc,LQA,stepsize=10,maxpoint=20)
 --------------------------------------------------------------
 1/10=4,14=-1,18=10,26=3,38=1,39=10,42=20,44=3,45=2/1,23;
 2/12=2,17=6,18=5,29=1,40=1/2;
 3/5=1,6=6,7=1,11=2,16=1,25=1,30=1,71=2,74=-5,124=31,140=1/1,2,3;
 4//1;
 5/5=2,38=5/2;
 8/6=4,10=90,11=11/1;
 11/6=1,8=1,9=11,15=111,16=1/1,2,10;
 10/6=1,13=1/2;
 6/7=2,8=2,9=2,10=2,28=1/1;
 7/10=1,18=20,25=1/1,2,3,16;
 1/10=4,14=-1,18=10,26=3,39=10,42=20,44=3,45=2/23(2);
 2/29=1/2;
 99/5=20/99;
 2/29=1/2;
 3/5=1,6=6,7=1,11=2,16=1,25=1,30=1,71=2,74=-5,124=31,140=1/1,2,3;
 4/5=5,16=3,69=1/1;
 5/5=2,38=5/2;
 8/6=4,10=90,11=11/1;
 11/6=1,8=1,9=11,15=111,16=1/1,2,10;
 10/6=1,13=1/2;
 7/10=1,18=20,25=1/1,2,3,16;
 1/14=-1,18=10,26=3,39=10,42=20,44=3,45=2/23(-8);
 2/29=1/2;
 6/7=2,8=2,9=2,10=2,19=2,28=1/1;
 99/5=20,9=1/99;
 Leave Link    1 at Mon Mar 25 15:48:31 2019, MaxMem=  1048576000 cpu:         0.2
 (Enter /home/xinyan/g09/l101.exe)
 -----
 Title
 -----
 Symbolic Z-matrix:
 Charge = -1 Multiplicity = 1
 6                     0.77334   0.00041   0.00005 
 1                     0.76812   0.07641   1.07193 
 1                     0.76811   0.89214  -0.60012 
 1                     0.76823  -0.96531  -0.46978 
 17                    3.15164  -0.00017  -0.00007 
 35                   -1.72921  -0.00008  -0.00003 
 
 NAtoms=      6 NQM=        6 NQMF=       0 NMMI=      0 NMMIF=      0
                NMic=       0 NMicF=      0.
                    Isotopes and Nuclear Properties:
 (Nuclear quadrupole moments (NQMom) in fm**2, nuclear magnetic moments (NMagM)
  in nuclear magnetons)

  Atom         1           2           3           4           5           6
 IAtWgt=          12           1           1           1          35          79
 AtmWgt=  12.0000000   1.0078250   1.0078250   1.0078250  34.9688527  78.9183361
 NucSpn=           0           1           1           1           3           3
 AtZEff=   0.0000000   0.0000000   0.0000000   0.0000000   0.0000000   0.0000000
 NQMom=    0.0000000   0.0000000   0.0000000   0.0000000  -8.1650000  31.3000000
 NMagM=    0.0000000   2.7928460   2.7928460   2.7928460   0.8218740   2.1063990
 AtZNuc=   6.0000000   1.0000000   1.0000000   1.0000000  17.0000000  35.0000000
 Leave Link  101 at Mon Mar 25 15:48:31 2019, MaxMem=  1048576000 cpu:         0.3
 (Enter /home/xinyan/g09/l123.exe)
 IRC-IRC-IRC-IRC-IRC-IRC-IRC-IRC-IRC-IRC-IRC-IRC-IRC-IRC-IRC-IRC-IRC-IRC
 ------------------------------------------------------------------------
 INPUT DATA FOR L123
 ------------------------------------------------------------------------
 GENERAL PARAMETERS:
 Follow reaction path in both directions.
 Maximum points per path      =  20
 Step size                    =   0.100 bohr
 Integration scheme           = LQA                                 
 Initial Hessian              = CalcFC
 Hessian evaluation           = All updating
 Hessian updating method      = Bofill                              
 ------------------------------------------------------------------------
 IRC-IRC-IRC-IRC-IRC-IRC-IRC-IRC-IRC-IRC-IRC-IRC-IRC-IRC-IRC-IRC-IRC-IRC
 Leave Link  123 at Mon Mar 25 15:48:31 2019, MaxMem=  1048576000 cpu:         0.0
 (Enter /home/xinyan/g09/l202.exe)
                          Input orientation:                          
 ---------------------------------------------------------------------
 Center     Atomic      Atomic             Coordinates (Angstroms)
 Number     Number       Type             X           Y           Z
 ---------------------------------------------------------------------
      1          6           0        0.773343    0.000406    0.000047
      2          1           0        0.768123    0.076412    1.071927
      3          1           0        0.768113    0.892143   -0.600117
      4          1           0        0.768232   -0.965314   -0.469776
      5         17           0        3.151635   -0.000170   -0.000069
      6         35           0       -1.729209   -0.000080   -0.000033
 ---------------------------------------------------------------------
                    Distance matrix (angstroms):
                    1          2          3          4          5
     1  C    0.000000
     2  H    1.074584   0.000000
     3  H    1.074904   1.860416   0.000000
     4  H    1.073953   1.860656   1.862025   0.000000
     5  Cl   2.378292   2.614607   2.614853   2.613951   0.000000
     6  Br   2.502552   2.718753   2.718967   2.718372   4.880844
                    6
     6  Br   0.000000
 Symmetry turned off by external request.
 Stoichiometry    CH3BrCl(1-)
 Framework group  C1[X(CH3BrCl)]
 Deg. of freedom    12
 Full point group                 C1      NOp   1
 Rotational constants (GHZ):    144.7848534      0.8531682      0.8531627
 Leave Link  202 at Mon Mar 25 15:48:31 2019, MaxMem=  1048576000 cpu:         0.0
 (Enter /home/xinyan/g09/l301.exe)
 Standard basis: 6-31G(d) (6D, 7F)
 Ernie: Thresh=  0.10000D-02 Tol=  0.10000D-05 Strict=F.
    70 basis functions,   175 primitive gaussians,    70 cartesian basis functions
    31 alpha electrons       31 beta electrons
       nuclear repulsion energy       172.0884068817 Hartrees.
 IExCor=  402 DFT=T Ex+Corr=B3LYP ExCW=0 ScaHFX=  0.200000
 ScaDFX=  0.800000  0.720000  1.000000  0.810000 ScalE2=  1.000000  1.000000
 IRadAn=      0 IRanWt=     -1 IRanGd=            0 ICorTp=0 IEmpDi=131
 NAtoms=    6 NActive=    6 NUniq=    6 SFac= 1.00D+00 NAtFMM=   60 NAOKFM=F Big=F
 Integral buffers will be    131072 words long.
 Raffenetti 2 integral format.
 Two-electron integral symmetry is turned off.
 R6Disp:  Grimme-D3 Dispersion energy=       -0.0040067395 Hartrees.
 Nuclear repulsion after empirical dispersion term =      172.0844001423 Hartrees.
 Leave Link  301 at Mon Mar 25 15:48:31 2019, MaxMem=  1048576000 cpu:         0.1
 (Enter /home/xinyan/g09/l302.exe)
 NPDir=0 NMtPBC=     1 NCelOv=     1 NCel=       1 NClECP=     1 NCelD=      1
         NCelK=      1 NCelE2=     1 NClLst=     1 CellRange=     0.0.
 One-electron integrals computed using PRISM.
 NBasis=    70 RedAO= T EigKep=  7.62D-04  NBF=    70
 NBsUse=    70 1.00D-06 EigRej= -1.00D+00 NBFU=    70
 Precomputing XC quadrature grid using
 IXCGrd= 4 IRadAn=           0 IRanWt=          -1 IRanGd=           0 AccXCQ= 0.00D+00.
 Generated NRdTot=       0 NPtTot=           0 NUsed=           0 NTot=          32
 NSgBfM=    70    70    70    70    70 MxSgAt=     6 MxSgA2=     6.
 Leave Link  302 at Mon Mar 25 15:48:32 2019, MaxMem=  1048576000 cpu:         0.3
 (Enter /home/xinyan/g09/l303.exe)
 DipDrv:  MaxL=1.
 Leave Link  303 at Mon Mar 25 15:48:32 2019, MaxMem=  1048576000 cpu:         0.1
 (Enter /home/xinyan/g09/l401.exe)
 ExpMin= 1.43D-01 ExpMax= 5.74D+05 ExpMxC= 5.74D+03 IAcc=2 IRadAn=         4 AccDes= 0.00D+00
 Harris functional with IExCor=  402 and IRadAn=       4 diagonalized for initial guess.
 HarFok:  IExCor=  402 AccDes= 0.00D+00 IRadAn=         4 IDoV= 1 UseB2=F ITyADJ=14
 ICtDFT=  3500011 ScaDFX=  1.000000  1.000000  1.000000  1.000000
 FoFCou: FMM=F IPFlag=           0 FMFlag=      100000 FMFlg1=           0
         NFxFlg=           0 DoJE=T BraDBF=F KetDBF=T FulRan=T
         wScrn=  0.000000 ICntrl=     500 IOpCl=  0 I1Cent=   200000004 NGrid=           0
         NMat0=    1 NMatS0=      1 NMatT0=    0 NMatD0=    1 NMtDS0=    0 NMtDT0=    0
 Symmetry not used in FoFCou.
 Harris En= -3072.08086347874    
 JPrj=0 DoOrth=F DoCkMO=F.
 Leave Link  401 at Mon Mar 25 15:48:32 2019, MaxMem=  1048576000 cpu:         0.4
 (Enter /home/xinyan/g09/l502.exe)
 Closed shell SCF:
 Using DIIS extrapolation, IDIIS=  1040.
 Two-electron integral symmetry not used.
 Keep R1 ints in memory in canonical form, NReq=4126594.
 IVT=       34102 IEndB=       34102 NGot=  1048576000 MDV=  1045453044
 LenX=  1045453044 LenY=  1045447703
 Requested convergence on RMS density matrix=1.00D-08 within 128 cycles.
 Requested convergence on MAX density matrix=1.00D-06.
 Requested convergence on             energy=1.00D-06.
 No special actions if energy rises.
 FoFCou: FMM=F IPFlag=           0 FMFlag=           0 FMFlg1=           0
         NFxFlg=           0 DoJE=F BraDBF=F KetDBF=F FulRan=T
         wScrn=  0.000000 ICntrl=     600 IOpCl=  0 I1Cent=           0 NGrid=           0
         NMat0=    1 NMatS0=   2485 NMatT0=    0 NMatD0=    1 NMtDS0=    0 NMtDT0=    0
 Symmetry not used in FoFCou.
 Integral accuracy reduced to 1.0D-05 until final iterations.

 Cycle   1  Pass 0  IDiag  1:
 E= -3071.80958143585    
 DIIS: error= 2.00D-01 at cycle   1 NSaved=   1.
 NSaved= 1 IEnMin= 1 EnMin= -3071.80958143585     IErMin= 1 ErrMin= 2.00D-01
 ErrMax= 2.00D-01  0.00D+00 EMaxC= 1.00D-01 BMatC= 3.86D-01 BMatP= 3.86D-01
 IDIUse=3 WtCom= 0.00D+00 WtEn= 1.00D+00
 Coeff-Com:  0.100D+01
 Coeff-En:   0.100D+01
 Coeff:      0.100D+01
 Gap=     0.320 Goal=   None    Shift=    0.000
 GapD=    0.320 DampG=1.000 DampE=0.250 DampFc=0.2500 IDamp=-1.
 Damping current iteration by 2.50D-01
 RMSDP=1.11D-02 MaxDP=1.84D-01              OVMax= 2.75D-01

 Cycle   2  Pass 0  IDiag  1:
 E= -3071.83604042480     Delta-E=       -0.026458988950 Rises=F Damp=T
 DIIS: error= 1.49D-01 at cycle   2 NSaved=   2.
 NSaved= 2 IEnMin= 2 EnMin= -3071.83604042480     IErMin= 2 ErrMin= 1.49D-01
 ErrMax= 1.49D-01  0.00D+00 EMaxC= 1.00D-01 BMatC= 2.02D-01 BMatP= 3.86D-01
 IDIUse=3 WtCom= 0.00D+00 WtEn= 1.00D+00
 Coeff-Com: -0.213D+01 0.313D+01
 Coeff-En:   0.000D+00 0.100D+01
 Coeff:      0.000D+00 0.100D+01
 Gap=     0.193 Goal=   None    Shift=    0.000
 RMSDP=7.03D-03 MaxDP=1.29D-01 DE=-2.65D-02 OVMax= 6.81D-02

 Cycle   3  Pass 0  IDiag  1:
 E= -3071.86877772610     Delta-E=       -0.032737301301 Rises=F Damp=F
 DIIS: error= 2.05D-02 at cycle   3 NSaved=   3.
 NSaved= 3 IEnMin= 3 EnMin= -3071.86877772610     IErMin= 3 ErrMin= 2.05D-02
 ErrMax= 2.05D-02  0.00D+00 EMaxC= 1.00D-01 BMatC= 1.20D-02 BMatP= 2.02D-01
 IDIUse=3 WtCom= 7.95D-01 WtEn= 2.05D-01
 Coeff-Com:  0.179D+01-0.235D+01 0.156D+01
 Coeff-En:   0.827D-01 0.000D+00 0.917D+00
 Coeff:      0.144D+01-0.187D+01 0.143D+01
 Gap=     0.211 Goal=   None    Shift=    0.000
 RMSDP=3.36D-03 MaxDP=5.22D-02 DE=-3.27D-02 OVMax= 1.12D-01

 Cycle   4  Pass 0  IDiag  1:
 E= -3071.87977091995     Delta-E=       -0.010993193852 Rises=F Damp=F
 DIIS: error= 6.30D-03 at cycle   4 NSaved=   4.
 NSaved= 4 IEnMin= 4 EnMin= -3071.87977091995     IErMin= 4 ErrMin= 6.30D-03
 ErrMax= 6.30D-03  0.00D+00 EMaxC= 1.00D-01 BMatC= 3.14D-03 BMatP= 1.20D-02
 IDIUse=3 WtCom= 9.37D-01 WtEn= 6.30D-02
 Coeff-Com:  0.304D+00-0.386D+00 0.522D+00 0.560D+00
 Coeff-En:   0.000D+00 0.000D+00 0.220D+00 0.780D+00
 Coeff:      0.285D+00-0.362D+00 0.503D+00 0.574D+00
 Gap=     0.196 Goal=   None    Shift=    0.000
 RMSDP=1.57D-03 MaxDP=3.14D-02 DE=-1.10D-02 OVMax= 5.84D-02

 Cycle   5  Pass 0  IDiag  1:
 E= -3071.88378224440     Delta-E=       -0.004011324453 Rises=F Damp=F
 DIIS: error= 2.14D-03 at cycle   5 NSaved=   5.
 NSaved= 5 IEnMin= 5 EnMin= -3071.88378224440     IErMin= 5 ErrMin= 2.14D-03
 ErrMax= 2.14D-03  0.00D+00 EMaxC= 1.00D-01 BMatC= 3.31D-04 BMatP= 3.14D-03
 IDIUse=3 WtCom= 9.79D-01 WtEn= 2.14D-02
 Coeff-Com: -0.907D-01 0.126D+00 0.915D-01 0.336D+00 0.538D+00
 Coeff-En:   0.000D+00 0.000D+00 0.000D+00 0.000D+00 0.100D+01
 Coeff:     -0.887D-01 0.123D+00 0.896D-01 0.329D+00 0.548D+00
 Gap=     0.196 Goal=   None    Shift=    0.000
 RMSDP=3.83D-04 MaxDP=7.32D-03 DE=-4.01D-03 OVMax= 1.33D-02

 Cycle   6  Pass 0  IDiag  1:
 E= -3071.88421679675     Delta-E=       -0.000434552350 Rises=F Damp=F
 DIIS: error= 2.70D-04 at cycle   6 NSaved=   6.
 NSaved= 6 IEnMin= 6 EnMin= -3071.88421679675     IErMin= 6 ErrMin= 2.70D-04
 ErrMax= 2.70D-04  0.00D+00 EMaxC= 1.00D-01 BMatC= 2.70D-06 BMatP= 3.31D-04
 IDIUse=3 WtCom= 9.97D-01 WtEn= 2.70D-03
 Coeff-Com: -0.378D-01 0.508D-01 0.607D-02 0.870D-01 0.166D+00 0.728D+00
 Coeff-En:   0.000D+00 0.000D+00 0.000D+00 0.000D+00 0.000D+00 0.100D+01
 Coeff:     -0.377D-01 0.507D-01 0.606D-02 0.867D-01 0.165D+00 0.729D+00
 Gap=     0.196 Goal=   None    Shift=    0.000
 RMSDP=3.28D-05 MaxDP=8.56D-04 DE=-4.35D-04 OVMax= 2.79D-04

 Cycle   7  Pass 0  IDiag  1:
 E= -3071.88421896815     Delta-E=       -0.000002171397 Rises=F Damp=F
 DIIS: error= 7.83D-05 at cycle   7 NSaved=   7.
 NSaved= 7 IEnMin= 7 EnMin= -3071.88421896815     IErMin= 7 ErrMin= 7.83D-05
 ErrMax= 7.83D-05  0.00D+00 EMaxC= 1.00D-01 BMatC= 3.46D-07 BMatP= 2.70D-06
 IDIUse=1 WtCom= 1.00D+00 WtEn= 0.00D+00
 Coeff-Com: -0.100D-02 0.122D-02-0.112D-02 0.107D-01 0.180D-01 0.206D+00
 Coeff-Com:  0.767D+00
 Coeff:     -0.100D-02 0.122D-02-0.112D-02 0.107D-01 0.180D-01 0.206D+00
 Coeff:      0.767D+00
 Gap=     0.196 Goal=   None    Shift=    0.000
 RMSDP=1.14D-05 MaxDP=2.78D-04 DE=-2.17D-06 OVMax= 3.57D-04

 Cycle   8  Pass 0  IDiag  1:
 E= -3071.88421943053     Delta-E=       -0.000000462378 Rises=F Damp=F
 DIIS: error= 3.65D-06 at cycle   8 NSaved=   8.
 NSaved= 8 IEnMin= 8 EnMin= -3071.88421943053     IErMin= 8 ErrMin= 3.65D-06
 ErrMax= 3.65D-06  0.00D+00 EMaxC= 1.00D-01 BMatC= 1.24D-09 BMatP= 3.46D-07
 IDIUse=1 WtCom= 1.00D+00 WtEn= 0.00D+00
 Coeff-Com:  0.314D-03-0.431D-03-0.522D-03-0.121D-02-0.265D-02-0.206D-01
 Coeff-Com:  0.590D-01 0.966D+00
 Coeff:      0.314D-03-0.431D-03-0.522D-03-0.121D-02-0.265D-02-0.206D-01
 Coeff:      0.590D-01 0.966D+00
 Gap=     0.196 Goal=   None    Shift=    0.000
 RMSDP=1.01D-06 MaxDP=1.77D-05 DE=-4.62D-07 OVMax= 2.50D-05

 Initial convergence to 1.0D-05 achieved.  Increase integral accuracy.
 Cycle   9  Pass 1  IDiag  1:
 E= -3071.88537606369     Delta-E=       -0.001156633165 Rises=F Damp=F
 DIIS: error= 1.31D-04 at cycle   1 NSaved=   1.
 NSaved= 1 IEnMin= 1 EnMin= -3071.88537606369     IErMin= 1 ErrMin= 1.31D-04
 ErrMax= 1.31D-04  0.00D+00 EMaxC= 1.00D-01 BMatC= 3.64D-07 BMatP= 3.64D-07
 IDIUse=3 WtCom= 9.99D-01 WtEn= 1.31D-03
 Coeff-Com:  0.100D+01
 Coeff-En:   0.100D+01
 Coeff:      0.100D+01
 Gap=     0.196 Goal=   None    Shift=    0.000
 RMSDP=1.01D-06 MaxDP=1.77D-05 DE=-1.16D-03 OVMax= 1.47D-04

 Cycle  10  Pass 1  IDiag  1:
 E= -3071.88537625513     Delta-E=       -0.000000191434 Rises=F Damp=F
 DIIS: error= 1.01D-05 at cycle   2 NSaved=   2.
 NSaved= 2 IEnMin= 2 EnMin= -3071.88537625513     IErMin= 2 ErrMin= 1.01D-05
 ErrMax= 1.01D-05  0.00D+00 EMaxC= 1.00D-01 BMatC= 1.09D-08 BMatP= 3.64D-07
 IDIUse=1 WtCom= 1.00D+00 WtEn= 0.00D+00
 Coeff-Com:  0.446D-01 0.955D+00
 Coeff:      0.446D-01 0.955D+00
 Gap=     0.196 Goal=   None    Shift=    0.000
 RMSDP=4.41D-06 MaxDP=8.77D-05 DE=-1.91D-07 OVMax= 8.03D-05

 Cycle  11  Pass 1  IDiag  1:
 E= -3071.88537625848     Delta-E=       -0.000000003357 Rises=F Damp=F
 DIIS: error= 9.42D-06 at cycle   3 NSaved=   3.
 NSaved= 3 IEnMin= 3 EnMin= -3071.88537625848     IErMin= 3 ErrMin= 9.42D-06
 ErrMax= 9.42D-06  0.00D+00 EMaxC= 1.00D-01 BMatC= 7.92D-09 BMatP= 1.09D-08
 IDIUse=1 WtCom= 1.00D+00 WtEn= 0.00D+00
 Coeff-Com: -0.126D-02 0.459D+00 0.542D+00
 Coeff:     -0.126D-02 0.459D+00 0.542D+00
 Gap=     0.196 Goal=   None    Shift=    0.000
 RMSDP=2.31D-06 MaxDP=4.55D-05 DE=-3.36D-09 OVMax= 6.00D-05

 Cycle  12  Pass 1  IDiag  1:
 E= -3071.88537626714     Delta-E=       -0.000000008656 Rises=F Damp=F
 DIIS: error= 4.20D-06 at cycle   4 NSaved=   4.
 NSaved= 4 IEnMin= 4 EnMin= -3071.88537626714     IErMin= 4 ErrMin= 4.20D-06
 ErrMax= 4.20D-06  0.00D+00 EMaxC= 1.00D-01 BMatC= 6.29D-10 BMatP= 7.92D-09
 IDIUse=1 WtCom= 1.00D+00 WtEn= 0.00D+00
 Coeff-Com: -0.169D-02 0.233D+00 0.314D+00 0.454D+00
 Coeff:     -0.169D-02 0.233D+00 0.314D+00 0.454D+00
 Gap=     0.196 Goal=   None    Shift=    0.000
 RMSDP=4.60D-07 MaxDP=6.73D-06 DE=-8.66D-09 OVMax= 1.41D-05

 Cycle  13  Pass 1  IDiag  1:
 E= -3071.88537626794     Delta-E=       -0.000000000798 Rises=F Damp=F
 DIIS: error= 5.81D-07 at cycle   5 NSaved=   5.
 NSaved= 5 IEnMin= 5 EnMin= -3071.88537626794     IErMin= 5 ErrMin= 5.81D-07
 ErrMax= 5.81D-07  0.00D+00 EMaxC= 1.00D-01 BMatC= 1.01D-11 BMatP= 6.29D-10
 IDIUse=1 WtCom= 1.00D+00 WtEn= 0.00D+00
 Coeff-Com: -0.594D-03 0.303D-01 0.427D-01 0.134D+00 0.794D+00
 Coeff:     -0.594D-03 0.303D-01 0.427D-01 0.134D+00 0.794D+00
 Gap=     0.196 Goal=   None    Shift=    0.000
 RMSDP=6.50D-08 MaxDP=9.86D-07 DE=-7.98D-10 OVMax= 2.19D-06

 Cycle  14  Pass 1  IDiag  1:
 E= -3071.88537626795     Delta-E=       -0.000000000009 Rises=F Damp=F
 DIIS: error= 1.61D-07 at cycle   6 NSaved=   6.
 NSaved= 6 IEnMin= 6 EnMin= -3071.88537626795     IErMin= 6 ErrMin= 1.61D-07
 ErrMax= 1.61D-07  0.00D+00 EMaxC= 1.00D-01 BMatC= 2.96D-12 BMatP= 1.01D-11
 IDIUse=1 WtCom= 1.00D+00 WtEn= 0.00D+00
 Coeff-Com: -0.237D-03 0.351D-02 0.503D-02 0.487D-01 0.438D+00 0.505D+00
 Coeff:     -0.237D-03 0.351D-02 0.503D-02 0.487D-01 0.438D+00 0.505D+00
 Gap=     0.196 Goal=   None    Shift=    0.000
 RMSDP=4.08D-08 MaxDP=1.09D-06 DE=-8.64D-12 OVMax= 1.30D-06

 Cycle  15  Pass 1  IDiag  1:
 E= -3071.88537626794     Delta-E=        0.000000000010 Rises=F Damp=F
 DIIS: error= 4.55D-08 at cycle   7 NSaved=   7.
 NSaved= 7 IEnMin= 6 EnMin= -3071.88537626795     IErMin= 7 ErrMin= 4.55D-08
 ErrMax= 4.55D-08  0.00D+00 EMaxC= 1.00D-01 BMatC= 1.59D-13 BMatP= 2.96D-12
 IDIUse=1 WtCom= 1.00D+00 WtEn= 0.00D+00
 Coeff-Com: -0.378D-04-0.197D-02-0.275D-02 0.102D-01 0.127D+00 0.242D+00
 Coeff-Com:  0.625D+00
 Coeff:     -0.378D-04-0.197D-02-0.275D-02 0.102D-01 0.127D+00 0.242D+00
 Coeff:      0.625D+00
 Gap=     0.196 Goal=   None    Shift=    0.000
 RMSDP=7.72D-09 MaxDP=2.06D-07 DE= 1.05D-11 OVMax= 1.82D-07

 SCF Done:  E(RB3LYP) =  -3071.88537627     A.U. after   15 cycles
            NFock= 15  Conv=0.77D-08     -V/T= 2.0057
 KE= 3.054391428587D+03 PE=-7.678308768712D+03 EE= 1.379947563715D+03
 Leave Link  502 at Mon Mar 25 15:48:33 2019, MaxMem=  1048576000 cpu:         3.8
 (Enter /home/xinyan/g09/l801.exe)
 DoSCS=F DFT=T ScalE2(SS,OS)=  1.000000  1.000000
 Range of M.O.s used for correlation:     1    70
 NBasis=    70 NAE=    31 NBE=    31 NFC=     0 NFV=     0
 NROrb=     70 NOA=    31 NOB=    31 NVA=    39 NVB=    39

 **** Warning!!: The largest alpha MO coefficient is  0.19621614D+02

 Leave Link  801 at Mon Mar 25 15:48:33 2019, MaxMem=  1048576000 cpu:         0.0
 (Enter /home/xinyan/g09/l1101.exe)
 Using compressed storage, NAtomX=     6.
 Will process      7 centers per pass.
 R6Disp: Adding Grimme-D3 dispersion energy 1st derivatives to the gradient.
 Leave Link 1101 at Mon Mar 25 15:48:33 2019, MaxMem=  1048576000 cpu:         0.3
 (Enter /home/xinyan/g09/l1102.exe)
 Symmetrizing basis deriv contribution to polar:
 IMax=3 JMax=2 DiffMx= 0.00D+00
 Leave Link 1102 at Mon Mar 25 15:48:33 2019, MaxMem=  1048576000 cpu:         0.0
 (Enter /home/xinyan/g09/l1110.exe)
 Forming Gx(P) for the SCF density, NAtomX=     6.
 Integral derivatives from FoFJK, PRISM(SPDF).
 Do as many integral derivatives as possible in FoFJK.
 G2DrvN: MDV=    1048575848.
 G2DrvN: will do     7 centers at a time, making    1 passes.
 Calling FoFCou, ICntrl=  3107 FMM=F I1Cent=   0 AccDes= 0.00D+00.
 FoFJK:  IHMeth= 1 ICntrl=    3107 DoSepK=F KAlg= 0 I1Cent=   0 FoldK=F
 IRaf=         0 NMat=   1 IRICut=       1 DoRegI=T DoRafI=F ISym2E= 0.
 FoFCou: FMM=F IPFlag=           0 FMFlag=      100000 FMFlg1=           0
         NFxFlg=           0 DoJE=F BraDBF=F KetDBF=F FulRan=T
         wScrn=  0.000000 ICntrl=    3107 IOpCl=  0 I1Cent=           0 NGrid=           0
         NMat0=    1 NMatS0=      1 NMatT0=    0 NMatD0=    1 NMtDS0=    0 NMtDT0=    0
 Symmetry not used in FoFCou.
 End of G2Drv F.D. properties file   721 does not exist.
 End of G2Drv F.D. properties file   722 does not exist.
 End of G2Drv F.D. properties file   788 does not exist.
 Leave Link 1110 at Mon Mar 25 15:48:34 2019, MaxMem=  1048576000 cpu:         5.7
 (Enter /home/xinyan/g09/l1002.exe)
 Minotr:  Closed shell wavefunction.
          IDoAtm=111111
          Direct CPHF calculation.
          Differentiating once with respect to nuclear coordinates.
          Requested convergence is 1.0D-08 RMS, and 1.0D-07 maximum.
          Secondary convergence is 1.0D-12 RMS, and 1.0D-12 maximum.
          NewPWx=T KeepS1=F KeepF1=F KeepIn=T MapXYZ=F SortEE=F KeepMc=T.
          MDV=    1048575866 using IRadAn=       2.
 Generate precomputed XC quadrature information.
 Keep R1 ints in memory in canonical form, NReq=4111134.
 FoFCou: FMM=F IPFlag=           0 FMFlag=           0 FMFlg1=           0
         NFxFlg=           0 DoJE=F BraDBF=F KetDBF=F FulRan=T
         wScrn=  0.000000 ICntrl=     600 IOpCl=  0 I1Cent=           0 NGrid=           0
         NMat0=    1 NMatS0=   2485 NMatT0=    0 NMatD0=    1 NMtDS0=    0 NMtDT0=    0
 Symmetry not used in FoFCou.
          Solving linear equations simultaneously, MaxMat=       0.
          There are    21 degrees of freedom in the 1st order CPHF.  IDoFFX=6 NUNeed=     0.
     15 vectors produced by pass  0 Test12= 5.76D-15 4.76D-09 XBig12= 1.55D-01 3.19D-01.
 AX will form    15 AO Fock derivatives at one time.
     15 vectors produced by pass  1 Test12= 5.76D-15 4.76D-09 XBig12= 3.20D-02 9.35D-02.
     15 vectors produced by pass  2 Test12= 5.76D-15 4.76D-09 XBig12= 2.23D-03 1.62D-02.
     15 vectors produced by pass  3 Test12= 5.76D-15 4.76D-09 XBig12= 2.23D-05 2.22D-03.
     15 vectors produced by pass  4 Test12= 5.76D-15 4.76D-09 XBig12= 2.33D-08 4.31D-05.
     10 vectors produced by pass  5 Test12= 5.76D-15 4.76D-09 XBig12= 3.08D-11 1.69D-06.
      3 vectors produced by pass  6 Test12= 5.76D-15 4.76D-09 XBig12= 1.44D-14 3.15D-08.
 InvSVY:  IOpt=1 It=  1 EMax= 1.22D-15
 Solved reduced A of dimension    88 with    15 vectors.
 End of Minotr F.D. properties file   721 does not exist.
 End of Minotr F.D. properties file   722 does not exist.
 End of Minotr F.D. properties file   788 does not exist.
 Leave Link 1002 at Mon Mar 25 15:48:35 2019, MaxMem=  1048576000 cpu:         3.9
 (Enter /home/xinyan/g09/l601.exe)
 Copying SCF densities to generalized density rwf, IOpCl= 0 IROHF=0.

 **********************************************************************

            Population analysis using the SCF density.

 **********************************************************************

 Alpha  occ. eigenvalues -- -482.67116-101.29895 -61.63363 -56.15349 -56.15179
 Alpha  occ. eigenvalues --  -56.15179 -10.09275  -9.21269  -8.34462  -6.97324
 Alpha  occ. eigenvalues --   -6.96901  -6.96901  -6.29392  -6.28842  -6.28842
 Alpha  occ. eigenvalues --   -2.41036  -2.40890  -2.40889  -2.40452  -2.40452
 Alpha  occ. eigenvalues --   -0.58084  -0.53727  -0.49539  -0.29240  -0.29193
 Alpha  occ. eigenvalues --   -0.15189  -0.08914  -0.08912  -0.07476  -0.07473
 Alpha  occ. eigenvalues --   -0.06973
 Alpha virt. eigenvalues --    0.12589   0.24969   0.31724   0.31756   0.45448
 Alpha virt. eigenvalues --    0.56997   0.61414   0.61436   0.64243   0.65036
 Alpha virt. eigenvalues --    0.65041   0.68740   0.68750   0.69851   0.69870
 Alpha virt. eigenvalues --    0.73408   0.78719   0.79289   0.79302   0.89215
 Alpha virt. eigenvalues --    1.05230   1.05311   1.11936   1.11980   1.11983
 Alpha virt. eigenvalues --    1.12933   1.12946   1.33379   1.46033   1.74840
 Alpha virt. eigenvalues --    1.82017   1.82038   2.18411   2.35755   2.35881
 Alpha virt. eigenvalues --    4.31089   4.47828   8.80380  72.43939
          Condensed to atoms (all electrons):
               1          2          3          4          5          6
     1  C    5.073929   0.388032   0.388052   0.388211   0.056861   0.069923
     2  H    0.388032   0.482313  -0.024947  -0.024874  -0.019887  -0.015550
     3  H    0.388052  -0.024947   0.482255  -0.024765  -0.019905  -0.015576
     4  H    0.388211  -0.024874  -0.024765   0.481794  -0.019936  -0.015588
     5  Cl   0.056861  -0.019887  -0.019905  -0.019936  17.643566   0.005069
     6  Br   0.069923  -0.015550  -0.015576  -0.015588   0.005069  35.605904
 Mulliken charges:
               1
     1  C   -0.365008
     2  H    0.214913
     3  H    0.214887
     4  H    0.215158
     5  Cl  -0.645768
     6  Br  -0.634182
 Sum of Mulliken charges =  -1.00000
 Mulliken charges with hydrogens summed into heavy atoms:
               1
     1  C    0.279949
     5  Cl  -0.645768
     6  Br  -0.634182
 APT charges:
               1
     1  C   -0.994267
     2  H    0.424973
     3  H    0.425046
     4  H    0.425105
     5  Cl  -0.674469
     6  Br  -0.606388
 Sum of APT charges =  -1.00000
 APT charges with hydrogens summed into heavy atoms:
               1
     1  C    0.280858
     5  Cl  -0.674469
     6  Br  -0.606388
 Electronic spatial extent (au):  <R**2>=           1130.8673
 Charge=             -1.0000 electrons
 Dipole moment (field-independent basis, Debye):
    X=             -3.5749    Y=              0.0018    Z=              0.0005  Tot=              3.5749
 Quadrupole moment (field-independent basis, Debye-Ang):
   XX=            -82.4130   YY=            -41.2601   ZZ=            -41.2676
   XY=              0.0020   XZ=              0.0013   YZ=              0.0010
 Traceless Quadrupole moment (field-independent basis, Debye-Ang):
   XX=            -27.4328   YY=             13.7202   ZZ=             13.7126
   XY=              0.0020   XZ=              0.0013   YZ=              0.0010
 Octapole moment (field-independent basis, Debye-Ang**2):
  XXX=           -135.4563  YYY=             -0.2043  ZZZ=              0.9599  XYY=            -15.5863
  XXY=              0.0035  XXZ=             -0.0006  XZZ=            -15.5922  YZZ=              0.2052
  YYZ=             -0.9600  XYZ=              0.0007
 Hexadecapole moment (field-independent basis, Debye-Ang**3):
 XXXX=          -1613.3883 YYYY=            -54.2518 ZZZZ=            -54.2544 XXXY=              0.0153
 XXXZ=              0.0042 YYYX=             -0.1526 YYYZ=             -0.0017 ZZZX=              0.7467
 ZZZY=              0.0038 XXYY=           -228.5505 XXZZ=           -228.5559 YYZZ=            -18.0859
 XXYZ=              0.0011 YYXZ=             -0.7438 ZZXY=              0.1611
 N-N= 1.720844001423D+02 E-N=-7.678308765428D+03  KE= 3.054391428587D+03
  Exact polarizability:   0.000   0.000   0.000   0.000   0.000   0.000
 Approx polarizability: 188.639  -0.002  41.093  -0.001  -0.003  41.086
 No NMR shielding tensors so no spin-rotation constants.
 Leave Link  601 at Mon Mar 25 15:48:36 2019, MaxMem=  1048576000 cpu:         0.4
 (Enter /home/xinyan/g09/l701.exe)
 Compute integral second derivatives.
 ... and contract with generalized density number  0.
 R6Disp: Adding Grimme-D3 dispersion energy 2nd derivatives to the Hessian.
 Leave Link  701 at Mon Mar 25 15:48:36 2019, MaxMem=  1048576000 cpu:         0.5
 (Enter /home/xinyan/g09/l702.exe)
 L702 exits ... SP integral derivatives will be done elsewhere.
 Leave Link  702 at Mon Mar 25 15:48:36 2019, MaxMem=  1048576000 cpu:         0.1
 (Enter /home/xinyan/g09/l703.exe)
 Compute integral second derivatives, UseDBF=F ICtDFT=           0.
 Integral derivatives from FoFJK, PRISM(SPDF).
 Calling FoFJK, ICntrl=    100147 FMM=F ISym2X=0 I1Cent= 0 IOpClX= 0 NMat=1 NMatS=1 NMatT=0.
 FoFJK:  IHMeth= 1 ICntrl=  100147 DoSepK=F KAlg= 0 I1Cent=   0 FoldK=F
 IRaf=         0 NMat=   1 IRICut=       1 DoRegI=T DoRafI=F ISym2E= 0.
 FoFCou: FMM=F IPFlag=           0 FMFlag=      100000 FMFlg1=         800
         NFxFlg=           0 DoJE=F BraDBF=F KetDBF=F FulRan=T
         wScrn=  0.000000 ICntrl=  100147 IOpCl=  0 I1Cent=           0 NGrid=           0
         NMat0=    1 NMatS0=      1 NMatT0=    0 NMatD0=    1 NMtDS0=    0 NMtDT0=    0
 Symmetry not used in FoFCou.
 Leave Link  703 at Mon Mar 25 15:48:38 2019, MaxMem=  1048576000 cpu:         8.9
 (Enter /home/xinyan/g09/l716.exe)
 Dipole        =-1.40649152D+00 7.00992728D-04 2.07594634D-04
 Polarizability= 0.00000000D+00 0.00000000D+00 0.00000000D+00
                 0.00000000D+00 0.00000000D+00 0.00000000D+00
 -------------------------------------------------------------------
 Center     Atomic                   Forces (Hartrees/Bohr)
 Number     Number              X              Y              Z
 -------------------------------------------------------------------
      1        6          -0.000056511    0.000724400    0.000243257
      2        1          -0.000013564   -0.000091443   -0.000084547
      3        1          -0.000006530   -0.000304383   -0.000065474
      4        1          -0.000021951   -0.000298359   -0.000324247
      5       17          -0.000059159   -0.000009154    0.000078882
      6       35           0.000157715   -0.000021062    0.000152129
 -------------------------------------------------------------------
 Cartesian Forces:  Max     0.000724400 RMS     0.000230060
 Z-matrix is all fixed cartesians, so copy forces.
 Force constants in Cartesian coordinates: 
                1             2             3             4             5 
      1 -0.374992D-01
      2  0.000000D+00  0.695177D+00
      3 -0.375917D-04  0.135082D-02  0.693201D+00
      4 -0.633763D-02  0.659755D-04  0.921351D-03  0.333265D-01
      5  0.904411D-04 -0.583604D-01 -0.234641D-01 -0.128668D-03  0.481227D-01
      6  0.136564D-02 -0.234645D-01 -0.388135D+00 -0.179674D-02  0.246346D-01
      7 -0.659103D-02  0.748356D-03 -0.501239D-03  0.176212D-02  0.197946D-03
      8  0.113776D-02 -0.285428D+00  0.153928D+00  0.200770D-03  0.653703D-02
      9 -0.734002D-03  0.153869D+00 -0.160345D+00  0.100578D-03  0.228447D-01
     10 -0.606453D-02 -0.811195D-03 -0.401146D-03  0.176999D-02 -0.183216D-03
     11 -0.120993D-02 -0.327316D+00 -0.131811D+00 -0.187387D-03  0.376701D-02
     12 -0.570455D-03 -0.131765D+00 -0.120576D+00  0.124579D-03 -0.244553D-01
     13  0.292332D-01 -0.131044D-05  0.798422D-05 -0.158283D-01 -0.124867D-03
     14 -0.148065D-04 -0.126925D-01  0.000000D+00  0.480518D-03  0.859745D-04
     15  0.635258D-04  0.568572D-05 -0.127133D-01  0.723493D-02  0.208134D-03
     16  0.272592D-01 -0.257997D-05  0.106413D-04 -0.146927D-01  0.148364D-03
     17 -0.422433D-05 -0.113796D-01 -0.329785D-05 -0.431209D-03 -0.152338D-03
     18 -0.871209D-04  0.361394D-05 -0.114309D-01 -0.658470D-02  0.232004D-03
                6             7             8             9            10 
      6  0.395209D+00
      7  0.827067D-04  0.337269D-01
      8 -0.466462D-02 -0.142558D-02  0.287641D+00
      9 -0.765598D-02  0.954160D-03 -0.162239D+00  0.155639D+00
     10  0.118617D-03  0.166724D-02 -0.258493D-04 -0.204687D-03  0.332679D-01
     11  0.307824D-02  0.153811D-05 -0.118493D-01 -0.121378D-01  0.155011D-02
     12 -0.484269D-02 -0.214345D-03  0.153384D-01  0.108642D-01  0.776496D-03
     13 -0.166155D-02 -0.158327D-01 -0.132221D-02  0.942194D-03 -0.158917D-01
     14  0.195567D-03  0.607765D-02  0.169789D-02 -0.115970D-02 -0.654523D-02
     15  0.270136D-02 -0.408296D-02 -0.116959D-02  0.884168D-03 -0.317127D-02
     16  0.189132D-02 -0.147326D-01  0.143511D-02 -0.105824D-02 -0.147489D-01
     17  0.220775D-03 -0.559991D-02  0.140149D-02 -0.117732D-02  0.601538D-02
     18  0.272378D-02  0.376168D-02 -0.119342D-02  0.614012D-03  0.288199D-02
               11            12            13            14            15 
     11  0.331500D+00
     12  0.138778D+00  0.113524D+00
     13  0.145410D-02  0.763683D-03  0.373977D-01
     14  0.204771D-02  0.103279D-02 -0.310390D-05  0.714624D-02
     15  0.102344D-02  0.626981D-03 -0.475023D-04 -0.677270D-04  0.678573D-02
     16 -0.160843D-02 -0.879957D-03 -0.190783D-01  0.497465D-05  0.328289D-05
     17  0.185098D-02  0.107136D-02 -0.260191D-05  0.171469D-02  0.000000D+00
     18  0.106934D-02  0.403645D-03 -0.480876D-05  0.000000D+00  0.171502D-02
               16            17            18 
     16  0.359933D-01
     17  0.225693D-04  0.656481D-02
     18  0.329560D-04 -0.111573D-03  0.597444D-02
 Leave Link  716 at Mon Mar 25 15:48:38 2019, MaxMem=  1048576000 cpu:         0.0
 (Enter /home/xinyan/g09/l123.exe)
 IRC-IRC-IRC-IRC-IRC-IRC-IRC-IRC-IRC-IRC-IRC-IRC-IRC-IRC-IRC-IRC-IRC-IRC
          ******** Start new reaction path calculation ********
 Current Structure is TS -> form Hessian eigenvectors.
                            Diagonalizing Hessian.
 Supplied step size of   0.1000 bohr.
    Integration on MW PES will use step size of   0.3591 sqrt(amu)*bohr.
 Point Number:   0          Path Number:   1
 Calculating another point on the path.
 Point Number  1 in FORWARD path direction.
 Using LQA Reaction Path Following.
 IRC-IRC-IRC-IRC-IRC-IRC-IRC-IRC-IRC-IRC-IRC-IRC-IRC-IRC-IRC-IRC-IRC-IRC
 Leave Link  123 at Mon Mar 25 15:48:38 2019, MaxMem=  1048576000 cpu:         0.1
 (Enter /home/xinyan/g09/l202.exe)
                          Input orientation:                          
 ---------------------------------------------------------------------
 Center     Atomic      Atomic             Coordinates (Angstroms)
 Number     Number       Type             X           Y           Z
 ---------------------------------------------------------------------
      1          6           0        0.835260    0.000439    0.000070
      2          1           0        0.878570    0.076458    1.072129
      3          1           0        0.878227    0.892330   -0.600180
      4          1           0        0.879081   -0.965446   -0.469818
      5         17           0        3.273771   -0.000144   -0.000052
      6         35           0       -1.611281   -0.000045   -0.000015
 ---------------------------------------------------------------------
                    Distance matrix (angstroms):
                    1          2          3          4          5
     1  C    0.000000
     2  H    1.075623   0.000000
     3  H    1.075926   1.860716   0.000000
     4  H    1.075011   1.860958   1.862345   0.000000
     5  Cl   2.438511   2.625344   2.625890   2.624315   0.000000
     6  Br   2.446541   2.711955   2.711860   2.711940   4.885052
                    6
     6  Br   0.000000
 Symmetry turned off by external request.
 Stoichiometry    CH3BrCl(1-)
 Framework group  C1[X(CH3BrCl)]
 Deg. of freedom    12
 Full point group                 C1      NOp   1
 Rotational constants (GHZ):    144.7370363      0.8535059      0.8535004
 Leave Link  202 at Mon Mar 25 15:48:38 2019, MaxMem=  1048576000 cpu:         0.0
 (Enter /home/xinyan/g09/l301.exe)
 Standard basis: 6-31G(d) (6D, 7F)
 Ernie: Thresh=  0.10000D-02 Tol=  0.10000D-05 Strict=F.
    70 basis functions,   175 primitive gaussians,    70 cartesian basis functions
    31 alpha electrons       31 beta electrons
       nuclear repulsion energy       172.4892360982 Hartrees.
 IExCor=  402 DFT=T Ex+Corr=B3LYP ExCW=0 ScaHFX=  0.200000
 ScaDFX=  0.800000  0.720000  1.000000  0.810000 ScalE2=  1.000000  1.000000
 IRadAn=      0 IRanWt=     -1 IRanGd=            0 ICorTp=0 IEmpDi=131
 NAtoms=    6 NActive=    6 NUniq=    6 SFac= 1.00D+00 NAtFMM=   60 NAOKFM=F Big=F
 Integral buffers will be    131072 words long.
 Raffenetti 2 integral format.
 Two-electron integral symmetry is turned off.
 R6Disp:  Grimme-D3 Dispersion energy=       -0.0040169599 Hartrees.
 Nuclear repulsion after empirical dispersion term =      172.4852191383 Hartrees.
 Leave Link  301 at Mon Mar 25 15:48:38 2019, MaxMem=  1048576000 cpu:         0.0
 (Enter /home/xinyan/g09/l302.exe)
 NPDir=0 NMtPBC=     1 NCelOv=     1 NCel=       1 NClECP=     1 NCelD=      1
         NCelK=      1 NCelE2=     1 NClLst=     1 CellRange=     0.0.
 One-electron integrals computed using PRISM.
 NBasis=    70 RedAO= T EigKep=  7.62D-04  NBF=    70
 NBsUse=    70 1.00D-06 EigRej= -1.00D+00 NBFU=    70
 Precomputing XC quadrature grid using
 IXCGrd= 4 IRadAn=           0 IRanWt=          -1 IRanGd=           0 AccXCQ= 0.00D+00.
 Generated NRdTot=       0 NPtTot=           0 NUsed=           0 NTot=          32
 NSgBfM=    70    70    70    70    70 MxSgAt=     6 MxSgA2=     6.
 Leave Link  302 at Mon Mar 25 15:48:38 2019, MaxMem=  1048576000 cpu:         0.3
 (Enter /home/xinyan/g09/l303.exe)
 DipDrv:  MaxL=1.
 Leave Link  303 at Mon Mar 25 15:48:38 2019, MaxMem=  1048576000 cpu:         0.1
 (Enter /home/xinyan/g09/l401.exe)
 Initial guess from the checkpoint file:  "/home/xinyan/scratch/Gau-3324.chk"
 B after Tr=     0.213963    0.000060    0.000036
         Rot=    1.000000    0.000000    0.000000   -0.000001 Ang=   0.00 deg.
 Guess basis will be translated and rotated to current coordinates.
 JPrj=2 DoOrth=T DoCkMO=T.
 Generating alternative initial guess.
 ExpMin= 1.43D-01 ExpMax= 5.74D+05 ExpMxC= 5.74D+03 IAcc=2 IRadAn=         4 AccDes= 0.00D+00
 Harris functional with IExCor=  402 and IRadAn=       4 diagonalized for initial guess.
 HarFok:  IExCor=  402 AccDes= 0.00D+00 IRadAn=         4 IDoV= 1 UseB2=F ITyADJ=14
 ICtDFT=  3500011 ScaDFX=  1.000000  1.000000  1.000000  1.000000
 FoFCou: FMM=F IPFlag=           0 FMFlag=      100000 FMFlg1=           0
         NFxFlg=           0 DoJE=T BraDBF=F KetDBF=T FulRan=T
         wScrn=  0.000000 ICntrl=     500 IOpCl=  0 I1Cent=   200000004 NGrid=           0
         NMat0=    1 NMatS0=      1 NMatT0=    0 NMatD0=    1 NMtDS0=    0 NMtDT0=    0
 Symmetry not used in FoFCou.
 Harris En= -3072.07583136593    
 Leave Link  401 at Mon Mar 25 15:48:38 2019, MaxMem=  1048576000 cpu:         0.5
 (Enter /home/xinyan/g09/l502.exe)
 Closed shell SCF:
 Using DIIS extrapolation, IDIIS=  1040.
 Two-electron integral symmetry not used.
 Keep R1 ints in memory in canonical form, NReq=4126561.
 IVT=       34102 IEndB=       34102 NGot=  1048576000 MDV=  1045453044
 LenX=  1045453044 LenY=  1045447703
 Requested convergence on RMS density matrix=1.00D-08 within 128 cycles.
 Requested convergence on MAX density matrix=1.00D-06.
 Requested convergence on             energy=1.00D-06.
 No special actions if energy rises.
 FoFCou: FMM=F IPFlag=           0 FMFlag=           0 FMFlg1=           0
         NFxFlg=           0 DoJE=F BraDBF=F KetDBF=F FulRan=T
         wScrn=  0.000000 ICntrl=     600 IOpCl=  0 I1Cent=           0 NGrid=           0
         NMat0=    1 NMatS0=   2485 NMatT0=    0 NMatD0=    1 NMtDS0=    0 NMtDT0=    0
 Symmetry not used in FoFCou.
 Integral accuracy reduced to 1.0D-05 until final iterations.

 Cycle   1  Pass 0  IDiag  1:
 E= -3071.88332205132    
 DIIS: error= 4.69D-03 at cycle   1 NSaved=   1.
 NSaved= 1 IEnMin= 1 EnMin= -3071.88332205132     IErMin= 1 ErrMin= 4.69D-03
 ErrMax= 4.69D-03  0.00D+00 EMaxC= 1.00D-01 BMatC= 1.29D-03 BMatP= 1.29D-03
 IDIUse=3 WtCom= 9.53D-01 WtEn= 4.69D-02
 Coeff-Com:  0.100D+01
 Coeff-En:   0.100D+01
 Coeff:      0.100D+01
 Gap=     1.792 Goal=   None    Shift=    0.000
 GapD=    1.792 DampG=2.000 DampE=1.000 DampFc=2.0000 IDamp=-1.
 RMSDP=9.06D-04 MaxDP=1.49D-02              OVMax= 1.99D-02

 Cycle   2  Pass 0  IDiag  1:
 E= -3071.88428598239     Delta-E=       -0.000963931075 Rises=F Damp=F
 DIIS: error= 1.03D-03 at cycle   2 NSaved=   2.
 NSaved= 2 IEnMin= 2 EnMin= -3071.88428598239     IErMin= 2 ErrMin= 1.03D-03
 ErrMax= 1.03D-03  0.00D+00 EMaxC= 1.00D-01 BMatC= 9.73D-05 BMatP= 1.29D-03
 IDIUse=3 WtCom= 9.90D-01 WtEn= 1.03D-02
 Coeff-Com:  0.837D-01 0.916D+00
 Coeff-En:   0.000D+00 0.100D+01
 Coeff:      0.829D-01 0.917D+00
 Gap=     0.195 Goal=   None    Shift=    0.000
 RMSDP=5.73D-04 MaxDP=9.57D-03 DE=-9.64D-04 OVMax= 2.13D-02

 Cycle   3  Pass 0  IDiag  1:
 E= -3071.88421636341     Delta-E=        0.000069618979 Rises=F Damp=F
 DIIS: error= 1.28D-03 at cycle   3 NSaved=   3.
 NSaved= 3 IEnMin= 2 EnMin= -3071.88428598239     IErMin= 2 ErrMin= 1.03D-03
 ErrMax= 1.28D-03  0.00D+00 EMaxC= 1.00D-01 BMatC= 1.57D-04 BMatP= 9.73D-05
 IDIUse=3 WtCom= 2.19D-01 WtEn= 7.81D-01
 Coeff-Com:  0.492D-02 0.560D+00 0.435D+00
 Coeff-En:   0.000D+00 0.578D+00 0.422D+00
 Coeff:      0.108D-02 0.574D+00 0.425D+00
 Gap=     0.195 Goal=   None    Shift=    0.000
 RMSDP=2.95D-04 MaxDP=5.69D-03 DE= 6.96D-05 OVMax= 1.10D-02

 Cycle   4  Pass 0  IDiag  1:
 E= -3071.88445106832     Delta-E=       -0.000234704909 Rises=F Damp=F
 DIIS: error= 1.41D-04 at cycle   4 NSaved=   4.
 NSaved= 4 IEnMin= 4 EnMin= -3071.88445106832     IErMin= 4 ErrMin= 1.41D-04
 ErrMax= 1.41D-04  0.00D+00 EMaxC= 1.00D-01 BMatC= 7.52D-07 BMatP= 9.73D-05
 IDIUse=3 WtCom= 9.99D-01 WtEn= 1.41D-03
 Coeff-Com: -0.450D-02 0.141D+00 0.953D-01 0.769D+00
 Coeff-En:   0.000D+00 0.000D+00 0.000D+00 0.100D+01
 Coeff:     -0.450D-02 0.140D+00 0.951D-01 0.769D+00
 Gap=     0.195 Goal=   None    Shift=    0.000
 RMSDP=1.91D-05 MaxDP=3.20D-04 DE=-2.35D-04 OVMax= 5.86D-04

 Cycle   5  Pass 0  IDiag  1:
 E= -3071.88445191709     Delta-E=       -0.000000848767 Rises=F Damp=F
 DIIS: error= 4.58D-05 at cycle   5 NSaved=   5.
 NSaved= 5 IEnMin= 5 EnMin= -3071.88445191709     IErMin= 5 ErrMin= 4.58D-05
 ErrMax= 4.58D-05  0.00D+00 EMaxC= 1.00D-01 BMatC= 5.85D-08 BMatP= 7.52D-07
 IDIUse=1 WtCom= 1.00D+00 WtEn= 0.00D+00
 Coeff-Com: -0.175D-02 0.401D-01 0.258D-01 0.280D+00 0.656D+00
 Coeff:     -0.175D-02 0.401D-01 0.258D-01 0.280D+00 0.656D+00
 Gap=     0.195 Goal=   None    Shift=    0.000
 RMSDP=5.39D-06 MaxDP=8.30D-05 DE=-8.49D-07 OVMax= 1.98D-04

 Initial convergence to 1.0D-05 achieved.  Increase integral accuracy.
 Cycle   6  Pass 1  IDiag  1:
 E= -3071.88562291277     Delta-E=       -0.001170995676 Rises=F Damp=F
 DIIS: error= 1.30D-04 at cycle   1 NSaved=   1.
 NSaved= 1 IEnMin= 1 EnMin= -3071.88562291277     IErMin= 1 ErrMin= 1.30D-04
 ErrMax= 1.30D-04  0.00D+00 EMaxC= 1.00D-01 BMatC= 3.68D-07 BMatP= 3.68D-07
 IDIUse=3 WtCom= 9.99D-01 WtEn= 1.30D-03
 Coeff-Com:  0.100D+01
 Coeff-En:   0.100D+01
 Coeff:      0.100D+01
 Gap=     0.195 Goal=   None    Shift=    0.000
 RMSDP=5.39D-06 MaxDP=8.30D-05 DE=-1.17D-03 OVMax= 2.64D-04

 Cycle   7  Pass 1  IDiag  1:
 E= -3071.88562306362     Delta-E=       -0.000000150857 Rises=F Damp=F
 DIIS: error= 4.69D-05 at cycle   2 NSaved=   2.
 NSaved= 2 IEnMin= 2 EnMin= -3071.88562306362     IErMin= 2 ErrMin= 4.69D-05
 ErrMax= 4.69D-05  0.00D+00 EMaxC= 1.00D-01 BMatC= 6.34D-08 BMatP= 3.68D-07
 IDIUse=1 WtCom= 1.00D+00 WtEn= 0.00D+00
 Coeff-Com:  0.197D+00 0.803D+00
 Coeff:      0.197D+00 0.803D+00
 Gap=     0.195 Goal=   None    Shift=    0.000
 RMSDP=7.19D-06 MaxDP=1.25D-04 DE=-1.51D-07 OVMax= 3.03D-04

 Cycle   8  Pass 1  IDiag  1:
 E= -3071.88562304535     Delta-E=        0.000000018277 Rises=F Damp=F
 DIIS: error= 5.12D-05 at cycle   3 NSaved=   3.
 NSaved= 3 IEnMin= 2 EnMin= -3071.88562306362     IErMin= 2 ErrMin= 4.69D-05
 ErrMax= 5.12D-05  0.00D+00 EMaxC= 1.00D-01 BMatC= 7.81D-08 BMatP= 6.34D-08
 IDIUse=1 WtCom= 1.00D+00 WtEn= 0.00D+00
 Coeff-Com:  0.506D-02 0.525D+00 0.470D+00
 Coeff:      0.506D-02 0.525D+00 0.470D+00
 Gap=     0.195 Goal=   None    Shift=    0.000
 RMSDP=4.01D-06 MaxDP=7.35D-05 DE= 1.83D-08 OVMax= 1.82D-04

 Cycle   9  Pass 1  IDiag  1:
 E= -3071.88562313794     Delta-E=       -0.000000092591 Rises=F Damp=F
 DIIS: error= 2.66D-06 at cycle   4 NSaved=   4.
 NSaved= 4 IEnMin= 4 EnMin= -3071.88562313794     IErMin= 4 ErrMin= 2.66D-06
 ErrMax= 2.66D-06  0.00D+00 EMaxC= 1.00D-01 BMatC= 9.36D-10 BMatP= 6.34D-08
 IDIUse=1 WtCom= 1.00D+00 WtEn= 0.00D+00
 Coeff-Com: -0.214D-02 0.217D+00 0.216D+00 0.570D+00
 Coeff:     -0.214D-02 0.217D+00 0.216D+00 0.570D+00
 Gap=     0.195 Goal=   None    Shift=    0.000
 RMSDP=6.77D-07 MaxDP=1.13D-05 DE=-9.26D-08 OVMax= 1.35D-05

 Cycle  10  Pass 1  IDiag  1:
 E= -3071.88562313897     Delta-E=       -0.000000001035 Rises=F Damp=F
 DIIS: error= 2.68D-07 at cycle   5 NSaved=   5.
 NSaved= 5 IEnMin= 5 EnMin= -3071.88562313897     IErMin= 5 ErrMin= 2.68D-07
 ErrMax= 2.68D-07  0.00D+00 EMaxC= 1.00D-01 BMatC= 6.67D-12 BMatP= 9.36D-10
 IDIUse=1 WtCom= 1.00D+00 WtEn= 0.00D+00
 Coeff-Com: -0.717D-03 0.350D-01 0.348D-01 0.118D+00 0.813D+00
 Coeff:     -0.717D-03 0.350D-01 0.348D-01 0.118D+00 0.813D+00
 Gap=     0.195 Goal=   None    Shift=    0.000
 RMSDP=1.02D-07 MaxDP=1.90D-06 DE=-1.03D-09 OVMax= 3.63D-06

 Cycle  11  Pass 1  IDiag  1:
 E= -3071.88562313898     Delta-E=       -0.000000000009 Rises=F Damp=F
 DIIS: error= 2.01D-07 at cycle   6 NSaved=   6.
 NSaved= 6 IEnMin= 6 EnMin= -3071.88562313898     IErMin= 6 ErrMin= 2.01D-07
 ErrMax= 2.01D-07  0.00D+00 EMaxC= 1.00D-01 BMatC= 3.97D-12 BMatP= 6.67D-12
 IDIUse=1 WtCom= 1.00D+00 WtEn= 0.00D+00
 Coeff-Com: -0.276D-03 0.438D-02 0.441D-02 0.238D-01 0.454D+00 0.514D+00
 Coeff:     -0.276D-03 0.438D-02 0.441D-02 0.238D-01 0.454D+00 0.514D+00
 Gap=     0.195 Goal=   None    Shift=    0.000
 RMSDP=5.31D-08 MaxDP=1.15D-06 DE=-9.09D-12 OVMax= 1.97D-06

 Cycle  12  Pass 1  IDiag  1:
 E= -3071.88562313900     Delta-E=       -0.000000000016 Rises=F Damp=F
 DIIS: error= 4.90D-08 at cycle   7 NSaved=   7.
 NSaved= 7 IEnMin= 7 EnMin= -3071.88562313900     IErMin= 7 ErrMin= 4.90D-08
 ErrMax= 4.90D-08  0.00D+00 EMaxC= 1.00D-01 BMatC= 1.44D-13 BMatP= 3.97D-12
 IDIUse=1 WtCom= 1.00D+00 WtEn= 0.00D+00
 Coeff-Com: -0.370D-04-0.188D-02-0.173D-02-0.187D-02 0.133D+00 0.222D+00
 Coeff-Com:  0.651D+00
 Coeff:     -0.370D-04-0.188D-02-0.173D-02-0.187D-02 0.133D+00 0.222D+00
 Coeff:      0.651D+00
 Gap=     0.195 Goal=   None    Shift=    0.000
 RMSDP=8.09D-09 MaxDP=1.95D-07 DE=-1.64D-11 OVMax= 2.34D-07

 SCF Done:  E(RB3LYP) =  -3071.88562314     A.U. after   12 cycles
            NFock= 12  Conv=0.81D-08     -V/T= 2.0057
 KE= 3.054382772302D+03 PE=-7.678933659431D+03 EE= 1.380180044852D+03
 Leave Link  502 at Mon Mar 25 15:48:39 2019, MaxMem=  1048576000 cpu:         3.4
 (Enter /home/xinyan/g09/l801.exe)
 DoSCS=F DFT=T ScalE2(SS,OS)=  1.000000  1.000000
 Range of M.O.s used for correlation:     1    70
 NBasis=    70 NAE=    31 NBE=    31 NFC=     0 NFV=     0
 NROrb=     70 NOA=    31 NOB=    31 NVA=    39 NVB=    39

 **** Warning!!: The largest alpha MO coefficient is  0.19624848D+02

 Leave Link  801 at Mon Mar 25 15:48:39 2019, MaxMem=  1048576000 cpu:         0.0
 (Enter /home/xinyan/g09/l1101.exe)
 Leave Link 1101 at Mon Mar 25 15:48:39 2019, MaxMem=  1048576000 cpu:         0.0
 (Enter /home/xinyan/g09/l1102.exe)
 Symmetrizing basis deriv contribution to polar:
 IMax=3 JMax=2 DiffMx= 0.00D+00
 Leave Link 1102 at Mon Mar 25 15:48:39 2019, MaxMem=  1048576000 cpu:         0.1
 (Enter /home/xinyan/g09/l1110.exe)
 Leave Link 1110 at Mon Mar 25 15:48:39 2019, MaxMem=  1048576000 cpu:         0.0
 (Enter /home/xinyan/g09/l1002.exe)
 Minotr:  Closed shell wavefunction.
 Leave Link 1002 at Mon Mar 25 15:48:39 2019, MaxMem=  1048576000 cpu:         0.0
 (Enter /home/xinyan/g09/l701.exe)
 Compute integral first derivatives.
 ... and contract with generalized density number  0.
 R6Disp: Adding Grimme-D3 dispersion energy 1st derivatives to the gradient.
 Leave Link  701 at Mon Mar 25 15:48:40 2019, MaxMem=  1048576000 cpu:         0.3
 (Enter /home/xinyan/g09/l702.exe)
 L702 exits ... SP integral derivatives will be done elsewhere.
 Leave Link  702 at Mon Mar 25 15:48:40 2019, MaxMem=  1048576000 cpu:         0.0
 (Enter /home/xinyan/g09/l703.exe)
 Compute integral first derivatives, UseDBF=F ICtDFT=           0.
 Integral derivatives from FoFJK, PRISM(SPDF).
 Calling FoFJK, ICntrl=      2147 FMM=F ISym2X=0 I1Cent= 0 IOpClX= 0 NMat=1 NMatS=1 NMatT=0.
 FoFJK:  IHMeth= 1 ICntrl=    2147 DoSepK=F KAlg= 0 I1Cent=   0 FoldK=F
 IRaf=         0 NMat=   1 IRICut=       1 DoRegI=T DoRafI=F ISym2E= 0.
 FoFCou: FMM=F IPFlag=           0 FMFlag=      100000 FMFlg1=         800
         NFxFlg=           0 DoJE=F BraDBF=F KetDBF=F FulRan=T
         wScrn=  0.000000 ICntrl=    2147 IOpCl=  0 I1Cent=           0 NGrid=           0
         NMat0=    1 NMatS0=      1 NMatT0=    0 NMatD0=    1 NMtDS0=    0 NMtDT0=    0
 Symmetry not used in FoFCou.
 Leave Link  703 at Mon Mar 25 15:48:40 2019, MaxMem=  1048576000 cpu:         1.9
 (Enter /home/xinyan/g09/l716.exe)
 Dipole        =-1.96910473D+00 6.44903504D-04 1.90285752D-04
 Polarizability= 0.00000000D+00 0.00000000D+00 0.00000000D+00
                 0.00000000D+00 0.00000000D+00 0.00000000D+00
 -------------------------------------------------------------------
 Center     Atomic                   Forces (Hartrees/Bohr)
 Number     Number              X              Y              Z
 -------------------------------------------------------------------
      1        6          -0.004351153    0.000698407    0.000247161
      2        1          -0.000079122   -0.000135631   -0.000739310
      3        1          -0.000073027   -0.000836485    0.000295641
      4        1          -0.000085009    0.000306589   -0.000029798
      5       17           0.001955395   -0.000002502    0.000084256
      6       35           0.002632916   -0.000030378    0.000142050
 -------------------------------------------------------------------
 Cartesian Forces:  Max     0.004351153 RMS     0.001327722
 Z-matrix is all fixed cartesians, so copy forces.
 Leave Link  716 at Mon Mar 25 15:48:40 2019, MaxMem=  1048576000 cpu:         0.0
 (Enter /home/xinyan/g09/l123.exe)
 IRC-IRC-IRC-IRC-IRC-IRC-IRC-IRC-IRC-IRC-IRC-IRC-IRC-IRC-IRC-IRC-IRC-IRC
 Pt  1 Step number   1 out of a maximum of  20
 Point Number:   1          Path Number:   1
                    CURRENT STRUCTURE
                Cartesian Coordinates (Ang):                
 ---------------------------------------------------------------------
 Center     Atomic                     Coordinates (Angstroms)
 Number     Number                        X           Y           Z
 ---------------------------------------------------------------------
      1          6                    0.835260    0.000439    0.000070
      2          1                    0.878570    0.076458    1.072129
      3          1                    0.878227    0.892330   -0.600180
      4          1                    0.879081   -0.965446   -0.469818
      5         17                    3.273771   -0.000144   -0.000052
      6         35                   -1.611281   -0.000045   -0.000015
 ---------------------------------------------------------------------
   CHANGE IN THE REACTION COORDINATE =    0.35909
   NET REACTION COORDINATE UP TO THIS POINT =    0.35909
  # OF POINTS ALONG THE PATH =   1
  # OF STEPS =   1

 Calculating another point on the path.
 Point Number  2 in FORWARD path direction.
 Using LQA Reaction Path Following.
   LQA: T_Est iteration completed in    3 iterations.
 IRC-IRC-IRC-IRC-IRC-IRC-IRC-IRC-IRC-IRC-IRC-IRC-IRC-IRC-IRC-IRC-IRC-IRC
 Leave Link  123 at Mon Mar 25 15:48:40 2019, MaxMem=  1048576000 cpu:         0.1
 (Enter /home/xinyan/g09/l202.exe)
                          Input orientation:                          
 ---------------------------------------------------------------------
 Center     Atomic      Atomic             Coordinates (Angstroms)
 Number     Number       Type             X           Y           Z
 ---------------------------------------------------------------------
      1          6           0        0.783600    0.000698   -0.001109
      2          1           0        0.873989    0.075223    1.069314
      3          1           0        0.873191    0.890530   -0.601183
      4          1           0        0.874546   -0.963501   -0.472149
      5         17           0        3.281611   -0.000160    0.000149
      6         35           0       -1.606719   -0.000064    0.000154
 ---------------------------------------------------------------------
                    Distance matrix (angstroms):
                    1          2          3          4          5
     1  C    0.000000
     2  H    1.076815   0.000000
     3  H    1.076994   1.858840   0.000000
     4  H    1.076954   1.858778   1.858516   0.000000
     5  Cl   2.498011   2.635420   2.637311   2.635346   0.000000
     6  Br   2.390320   2.702348   2.702724   2.703324   4.888330
                    6
     6  Br   0.000000
 Symmetry turned off by external request.
 Stoichiometry    CH3BrCl(1-)
 Framework group  C1[X(CH3BrCl)]
 Deg. of freedom    12
 Full point group                 C1      NOp   1
 Rotational constants (GHZ):    145.1457829      0.8540735      0.8540724
 Leave Link  202 at Mon Mar 25 15:48:40 2019, MaxMem=  1048576000 cpu:         0.0
 (Enter /home/xinyan/g09/l301.exe)
 Standard basis: 6-31G(d) (6D, 7F)
 Ernie: Thresh=  0.10000D-02 Tol=  0.10000D-05 Strict=F.
    70 basis functions,   175 primitive gaussians,    70 cartesian basis functions
    31 alpha electrons       31 beta electrons
       nuclear repulsion energy       173.0036856801 Hartrees.
 IExCor=  402 DFT=T Ex+Corr=B3LYP ExCW=0 ScaHFX=  0.200000
 ScaDFX=  0.800000  0.720000  1.000000  0.810000 ScalE2=  1.000000  1.000000
 IRadAn=      0 IRanWt=     -1 IRanGd=            0 ICorTp=0 IEmpDi=131
 NAtoms=    6 NActive=    6 NUniq=    6 SFac= 1.00D+00 NAtFMM=   60 NAOKFM=F Big=F
 Integral buffers will be    131072 words long.
 Raffenetti 2 integral format.
 Two-electron integral symmetry is turned off.
 R6Disp:  Grimme-D3 Dispersion energy=       -0.0040235722 Hartrees.
 Nuclear repulsion after empirical dispersion term =      172.9996621079 Hartrees.
 Leave Link  301 at Mon Mar 25 15:48:40 2019, MaxMem=  1048576000 cpu:         0.1
 (Enter /home/xinyan/g09/l302.exe)
 NPDir=0 NMtPBC=     1 NCelOv=     1 NCel=       1 NClECP=     1 NCelD=      1
         NCelK=      1 NCelE2=     1 NClLst=     1 CellRange=     0.0.
 One-electron integrals computed using PRISM.
 NBasis=    70 RedAO= T EigKep=  7.61D-04  NBF=    70
 NBsUse=    70 1.00D-06 EigRej= -1.00D+00 NBFU=    70
 Precomputing XC quadrature grid using
 IXCGrd= 4 IRadAn=           0 IRanWt=          -1 IRanGd=           0 AccXCQ= 0.00D+00.
 Generated NRdTot=       0 NPtTot=           0 NUsed=           0 NTot=          32
 NSgBfM=    70    70    70    70    70 MxSgAt=     6 MxSgA2=     6.
 Leave Link  302 at Mon Mar 25 15:48:40 2019, MaxMem=  1048576000 cpu:         0.2
 (Enter /home/xinyan/g09/l303.exe)
 DipDrv:  MaxL=1.
 Leave Link  303 at Mon Mar 25 15:48:40 2019, MaxMem=  1048576000 cpu:         0.1
 (Enter /home/xinyan/g09/l401.exe)
 Initial guess from the checkpoint file:  "/home/xinyan/scratch/Gau-3324.chk"
 B after Tr=    -0.000965   -0.000015   -0.000114
         Rot=    1.000000   -0.000332   -0.000017   -0.000002 Ang=  -0.04 deg.
 Guess basis will be translated and rotated to current coordinates.
 JPrj=2 DoOrth=T DoCkMO=T.
 Generating alternative initial guess.
 ExpMin= 1.43D-01 ExpMax= 5.74D+05 ExpMxC= 5.74D+03 IAcc=2 IRadAn=         4 AccDes= 0.00D+00
 Harris functional with IExCor=  402 and IRadAn=       4 diagonalized for initial guess.
 HarFok:  IExCor=  402 AccDes= 0.00D+00 IRadAn=         4 IDoV= 1 UseB2=F ITyADJ=14
 ICtDFT=  3500011 ScaDFX=  1.000000  1.000000  1.000000  1.000000
 FoFCou: FMM=F IPFlag=           0 FMFlag=      100000 FMFlg1=           0
         NFxFlg=           0 DoJE=T BraDBF=F KetDBF=T FulRan=T
         wScrn=  0.000000 ICntrl=     500 IOpCl=  0 I1Cent=   200000004 NGrid=           0
         NMat0=    1 NMatS0=      1 NMatT0=    0 NMatD0=    1 NMtDS0=    0 NMtDT0=    0
 Symmetry not used in FoFCou.
 Harris En= -3072.07235468456    
 Leave Link  401 at Mon Mar 25 15:48:40 2019, MaxMem=  1048576000 cpu:         0.6
 (Enter /home/xinyan/g09/l502.exe)
 Closed shell SCF:
 Using DIIS extrapolation, IDIIS=  1040.
 Two-electron integral symmetry not used.
 Keep R1 ints in memory in canonical form, NReq=4126541.
 IVT=       34102 IEndB=       34102 NGot=  1048576000 MDV=  1045453044
 LenX=  1045453044 LenY=  1045447703
 Requested convergence on RMS density matrix=1.00D-08 within 128 cycles.
 Requested convergence on MAX density matrix=1.00D-06.
 Requested convergence on             energy=1.00D-06.
 No special actions if energy rises.
 FoFCou: FMM=F IPFlag=           0 FMFlag=           0 FMFlg1=           0
         NFxFlg=           0 DoJE=F BraDBF=F KetDBF=F FulRan=T
         wScrn=  0.000000 ICntrl=     600 IOpCl=  0 I1Cent=           0 NGrid=           0
         NMat0=    1 NMatS0=   2485 NMatT0=    0 NMatD0=    1 NMtDS0=    0 NMtDT0=    0
 Symmetry not used in FoFCou.
 Integral accuracy reduced to 1.0D-05 until final iterations.

 Cycle   1  Pass 0  IDiag  1:
 E= -3071.88407466719    
 DIIS: error= 4.90D-03 at cycle   1 NSaved=   1.
 NSaved= 1 IEnMin= 1 EnMin= -3071.88407466719     IErMin= 1 ErrMin= 4.90D-03
 ErrMax= 4.90D-03  0.00D+00 EMaxC= 1.00D-01 BMatC= 1.31D-03 BMatP= 1.31D-03
 IDIUse=3 WtCom= 9.51D-01 WtEn= 4.90D-02
 Coeff-Com:  0.100D+01
 Coeff-En:   0.100D+01
 Coeff:      0.100D+01
 Gap=     1.789 Goal=   None    Shift=    0.000
 GapD=    1.789 DampG=2.000 DampE=1.000 DampFc=2.0000 IDamp=-1.
 RMSDP=8.83D-04 MaxDP=1.47D-02              OVMax= 1.97D-02

 Cycle   2  Pass 0  IDiag  1:
 E= -3071.88499431758     Delta-E=       -0.000919650390 Rises=F Damp=F
 DIIS: error= 1.02D-03 at cycle   2 NSaved=   2.
 NSaved= 2 IEnMin= 2 EnMin= -3071.88499431758     IErMin= 2 ErrMin= 1.02D-03
 ErrMax= 1.02D-03  0.00D+00 EMaxC= 1.00D-01 BMatC= 9.20D-05 BMatP= 1.31D-03
 IDIUse=3 WtCom= 9.90D-01 WtEn= 1.02D-02
 Coeff-Com:  0.780D-01 0.922D+00
 Coeff-En:   0.000D+00 0.100D+01
 Coeff:      0.772D-01 0.923D+00
 Gap=     0.191 Goal=   None    Shift=    0.000
 RMSDP=5.57D-04 MaxDP=8.86D-03 DE=-9.20D-04 OVMax= 1.96D-02

 Cycle   3  Pass 0  IDiag  1:
 E= -3071.88492615359     Delta-E=        0.000068163989 Rises=F Damp=F
 DIIS: error= 1.21D-03 at cycle   3 NSaved=   3.
 NSaved= 3 IEnMin= 2 EnMin= -3071.88499431758     IErMin= 2 ErrMin= 1.02D-03
 ErrMax= 1.21D-03  0.00D+00 EMaxC= 1.00D-01 BMatC= 1.50D-04 BMatP= 9.20D-05
 IDIUse=3 WtCom= 2.23D-01 WtEn= 7.77D-01
 Coeff-Com:  0.378D-02 0.562D+00 0.434D+00
 Coeff-En:   0.000D+00 0.581D+00 0.419D+00
 Coeff:      0.845D-03 0.577D+00 0.423D+00
 Gap=     0.192 Goal=   None    Shift=    0.000
 RMSDP=2.85D-04 MaxDP=5.21D-03 DE= 6.82D-05 OVMax= 1.01D-02

 Cycle   4  Pass 0  IDiag  1:
 E= -3071.88514914233     Delta-E=       -0.000222988747 Rises=F Damp=F
 DIIS: error= 1.56D-04 at cycle   4 NSaved=   4.
 NSaved= 4 IEnMin= 4 EnMin= -3071.88514914233     IErMin= 4 ErrMin= 1.56D-04
 ErrMax= 1.56D-04  0.00D+00 EMaxC= 1.00D-01 BMatC= 7.56D-07 BMatP= 9.20D-05
 IDIUse=3 WtCom= 9.98D-01 WtEn= 1.56D-03
 Coeff-Com: -0.403D-02 0.145D+00 0.964D-01 0.763D+00
 Coeff-En:   0.000D+00 0.000D+00 0.000D+00 0.100D+01
 Coeff:     -0.403D-02 0.144D+00 0.962D-01 0.763D+00
 Gap=     0.192 Goal=   None    Shift=    0.000
 RMSDP=2.02D-05 MaxDP=3.08D-04 DE=-2.23D-04 OVMax= 7.13D-04

 Cycle   5  Pass 0  IDiag  1:
 E= -3071.88514994462     Delta-E=       -0.000000802287 Rises=F Damp=F
 DIIS: error= 6.82D-05 at cycle   5 NSaved=   5.
 NSaved= 5 IEnMin= 5 EnMin= -3071.88514994462     IErMin= 5 ErrMin= 6.82D-05
 ErrMax= 6.82D-05  0.00D+00 EMaxC= 1.00D-01 BMatC= 1.30D-07 BMatP= 7.56D-07
 IDIUse=1 WtCom= 1.00D+00 WtEn= 0.00D+00
 Coeff-Com: -0.209D-02 0.555D-01 0.354D-01 0.366D+00 0.546D+00
 Coeff:     -0.209D-02 0.555D-01 0.354D-01 0.366D+00 0.546D+00
 Gap=     0.192 Goal=   None    Shift=    0.000
 RMSDP=6.99D-06 MaxDP=1.14D-04 DE=-8.02D-07 OVMax= 2.67D-04

 Initial convergence to 1.0D-05 achieved.  Increase integral accuracy.
 Cycle   6  Pass 1  IDiag  1:
 E= -3071.88631845970     Delta-E=       -0.001168515082 Rises=F Damp=F
 DIIS: error= 1.29D-04 at cycle   1 NSaved=   1.
 NSaved= 1 IEnMin= 1 EnMin= -3071.88631845970     IErMin= 1 ErrMin= 1.29D-04
 ErrMax= 1.29D-04  0.00D+00 EMaxC= 1.00D-01 BMatC= 3.44D-07 BMatP= 3.44D-07
 IDIUse=3 WtCom= 9.99D-01 WtEn= 1.29D-03
 Coeff-Com:  0.100D+01
 Coeff-En:   0.100D+01
 Coeff:      0.100D+01
 Gap=     0.192 Goal=   None    Shift=    0.000
 RMSDP=6.99D-06 MaxDP=1.14D-04 DE=-1.17D-03 OVMax= 2.53D-04

 Cycle   7  Pass 1  IDiag  1:
 E= -3071.88631860546     Delta-E=       -0.000000145757 Rises=F Damp=F
 DIIS: error= 4.41D-05 at cycle   2 NSaved=   2.
 NSaved= 2 IEnMin= 2 EnMin= -3071.88631860546     IErMin= 2 ErrMin= 4.41D-05
 ErrMax= 4.41D-05  0.00D+00 EMaxC= 1.00D-01 BMatC= 6.01D-08 BMatP= 3.44D-07
 IDIUse=1 WtCom= 1.00D+00 WtEn= 0.00D+00
 Coeff-Com:  0.198D+00 0.802D+00
 Coeff:      0.198D+00 0.802D+00
 Gap=     0.192 Goal=   None    Shift=    0.000
 RMSDP=7.17D-06 MaxDP=1.24D-04 DE=-1.46D-07 OVMax= 2.98D-04

 Cycle   8  Pass 1  IDiag  1:
 E= -3071.88631858496     Delta-E=        0.000000020495 Rises=F Damp=F
 DIIS: error= 4.99D-05 at cycle   3 NSaved=   3.
 NSaved= 3 IEnMin= 2 EnMin= -3071.88631860546     IErMin= 2 ErrMin= 4.41D-05
 ErrMax= 4.99D-05  0.00D+00 EMaxC= 1.00D-01 BMatC= 7.74D-08 BMatP= 6.01D-08
 IDIUse=1 WtCom= 1.00D+00 WtEn= 0.00D+00
 Coeff-Com:  0.256D-02 0.531D+00 0.466D+00
 Coeff:      0.256D-02 0.531D+00 0.466D+00
 Gap=     0.192 Goal=   None    Shift=    0.000
 RMSDP=3.98D-06 MaxDP=7.14D-05 DE= 2.05D-08 OVMax= 1.73D-04

 Cycle   9  Pass 1  IDiag  1:
 E= -3071.88631867729     Delta-E=       -0.000000092330 Rises=F Damp=F
 DIIS: error= 2.43D-06 at cycle   4 NSaved=   4.
 NSaved= 4 IEnMin= 4 EnMin= -3071.88631867729     IErMin= 4 ErrMin= 2.43D-06
 ErrMax= 2.43D-06  0.00D+00 EMaxC= 1.00D-01 BMatC= 5.52D-10 BMatP= 6.01D-08
 IDIUse=1 WtCom= 1.00D+00 WtEn= 0.00D+00
 Coeff-Com: -0.241D-02 0.207D+00 0.197D+00 0.599D+00
 Coeff:     -0.241D-02 0.207D+00 0.197D+00 0.599D+00
 Gap=     0.192 Goal=   None    Shift=    0.000
 RMSDP=5.16D-07 MaxDP=8.72D-06 DE=-9.23D-08 OVMax= 1.00D-05

 Cycle  10  Pass 1  IDiag  1:
 E= -3071.88631867792     Delta-E=       -0.000000000628 Rises=F Damp=F
 DIIS: error= 2.57D-07 at cycle   5 NSaved=   5.
 NSaved= 5 IEnMin= 5 EnMin= -3071.88631867792     IErMin= 5 ErrMin= 2.57D-07
 ErrMax= 2.57D-07  0.00D+00 EMaxC= 1.00D-01 BMatC= 1.00D-11 BMatP= 5.52D-10
 IDIUse=1 WtCom= 1.00D+00 WtEn= 0.00D+00
 Coeff-Com: -0.880D-03 0.425D-01 0.409D-01 0.167D+00 0.750D+00
 Coeff:     -0.880D-03 0.425D-01 0.409D-01 0.167D+00 0.750D+00
 Gap=     0.192 Goal=   None    Shift=    0.000
 RMSDP=1.22D-07 MaxDP=2.19D-06 DE=-6.28D-10 OVMax= 4.16D-06

 Cycle  11  Pass 1  IDiag  1:
 E= -3071.88631867794     Delta-E=       -0.000000000013 Rises=F Damp=F
 DIIS: error= 2.32D-07 at cycle   6 NSaved=   6.
 NSaved= 6 IEnMin= 6 EnMin= -3071.88631867794     IErMin= 6 ErrMin= 2.32D-07
 ErrMax= 2.32D-07  0.00D+00 EMaxC= 1.00D-01 BMatC= 4.66D-12 BMatP= 1.00D-11
 IDIUse=1 WtCom= 1.00D+00 WtEn= 0.00D+00
 Coeff-Com: -0.289D-03 0.350D-02 0.355D-02 0.325D-01 0.427D+00 0.533D+00
 Coeff:     -0.289D-03 0.350D-02 0.355D-02 0.325D-01 0.427D+00 0.533D+00
 Gap=     0.192 Goal=   None    Shift=    0.000
 RMSDP=5.56D-08 MaxDP=1.24D-06 DE=-1.27D-11 OVMax= 2.01D-06

 Cycle  12  Pass 1  IDiag  1:
 E= -3071.88631867796     Delta-E=       -0.000000000022 Rises=F Damp=F
 DIIS: error= 4.26D-08 at cycle   7 NSaved=   7.
 NSaved= 7 IEnMin= 7 EnMin= -3071.88631867796     IErMin= 7 ErrMin= 4.26D-08
 ErrMax= 4.26D-08  0.00D+00 EMaxC= 1.00D-01 BMatC= 1.11D-13 BMatP= 4.66D-12
 IDIUse=1 WtCom= 1.00D+00 WtEn= 0.00D+00
 Coeff-Com: -0.345D-04-0.206D-02-0.178D-02 0.508D-03 0.129D+00 0.215D+00
 Coeff-Com:  0.659D+00
 Coeff:     -0.345D-04-0.206D-02-0.178D-02 0.508D-03 0.129D+00 0.215D+00
 Coeff:      0.659D+00
 Gap=     0.192 Goal=   None    Shift=    0.000
 RMSDP=6.95D-09 MaxDP=1.69D-07 DE=-2.18D-11 OVMax= 1.61D-07

 SCF Done:  E(RB3LYP) =  -3071.88631868     A.U. after   12 cycles
            NFock= 12  Conv=0.69D-08     -V/T= 2.0057
 KE= 3.054375831563D+03 PE=-7.679781880182D+03 EE= 1.380520067833D+03
 Leave Link  502 at Mon Mar 25 15:48:41 2019, MaxMem=  1048576000 cpu:         3.5
 (Enter /home/xinyan/g09/l801.exe)
 DoSCS=F DFT=T ScalE2(SS,OS)=  1.000000  1.000000
 Range of M.O.s used for correlation:     1    70
 NBasis=    70 NAE=    31 NBE=    31 NFC=     0 NFV=     0
 NROrb=     70 NOA=    31 NOB=    31 NVA=    39 NVB=    39

 **** Warning!!: The largest alpha MO coefficient is  0.19629133D+02

 Leave Link  801 at Mon Mar 25 15:48:41 2019, MaxMem=  1048576000 cpu:         0.1
 (Enter /home/xinyan/g09/l1101.exe)
 Leave Link 1101 at Mon Mar 25 15:48:41 2019, MaxMem=  1048576000 cpu:         0.1
 (Enter /home/xinyan/g09/l1102.exe)
 Symmetrizing basis deriv contribution to polar:
 IMax=3 JMax=2 DiffMx= 0.00D+00
 Leave Link 1102 at Mon Mar 25 15:48:41 2019, MaxMem=  1048576000 cpu:         0.1
 (Enter /home/xinyan/g09/l1110.exe)
 Leave Link 1110 at Mon Mar 25 15:48:41 2019, MaxMem=  1048576000 cpu:         0.0
 (Enter /home/xinyan/g09/l1002.exe)
 Minotr:  Closed shell wavefunction.
 Leave Link 1002 at Mon Mar 25 15:48:42 2019, MaxMem=  1048576000 cpu:         0.1
 (Enter /home/xinyan/g09/l701.exe)
 Compute integral first derivatives.
 ... and contract with generalized density number  0.
 R6Disp: Adding Grimme-D3 dispersion energy 1st derivatives to the gradient.
 Leave Link  701 at Mon Mar 25 15:48:42 2019, MaxMem=  1048576000 cpu:         0.3
 (Enter /home/xinyan/g09/l702.exe)
 L702 exits ... SP integral derivatives will be done elsewhere.
 Leave Link  702 at Mon Mar 25 15:48:42 2019, MaxMem=  1048576000 cpu:         0.0
 (Enter /home/xinyan/g09/l703.exe)
 Compute integral first derivatives, UseDBF=F ICtDFT=           0.
 Integral derivatives from FoFJK, PRISM(SPDF).
 Calling FoFJK, ICntrl=      2147 FMM=F ISym2X=0 I1Cent= 0 IOpClX= 0 NMat=1 NMatS=1 NMatT=0.
 FoFJK:  IHMeth= 1 ICntrl=    2147 DoSepK=F KAlg= 0 I1Cent=   0 FoldK=F
 IRaf=         0 NMat=   1 IRICut=       1 DoRegI=T DoRafI=F ISym2E= 0.
 FoFCou: FMM=F IPFlag=           0 FMFlag=      100000 FMFlg1=         800
         NFxFlg=           0 DoJE=F BraDBF=F KetDBF=F FulRan=T
         wScrn=  0.000000 ICntrl=    2147 IOpCl=  0 I1Cent=           0 NGrid=           0
         NMat0=    1 NMatS0=      1 NMatT0=    0 NMatD0=    1 NMtDS0=    0 NMtDT0=    0
 Symmetry not used in FoFCou.
 Leave Link  703 at Mon Mar 25 15:48:42 2019, MaxMem=  1048576000 cpu:         1.9
 (Enter /home/xinyan/g09/l716.exe)
 Dipole        =-2.30810059D+00 5.91262087D-04-1.02354204D-03
 Polarizability= 0.00000000D+00 0.00000000D+00 0.00000000D+00
                 0.00000000D+00 0.00000000D+00 0.00000000D+00
 -------------------------------------------------------------------
 Center     Atomic                   Forces (Hartrees/Bohr)
 Number     Number              X              Y              Z
 -------------------------------------------------------------------
      1        6          -0.007924233   -0.000007481   -0.000124501
      2        1          -0.000178759   -0.000090455   -0.001262115
      3        1          -0.000188151   -0.001008358    0.000678538
      4        1          -0.000245414    0.001128069    0.000529497
      5       17           0.003636295    0.000005739    0.000070680
      6       35           0.004900262   -0.000027513    0.000107903
 -------------------------------------------------------------------
 Cartesian Forces:  Max     0.007924233 RMS     0.002413164
 Z-matrix is all fixed cartesians, so copy forces.
 Leave Link  716 at Mon Mar 25 15:48:42 2019, MaxMem=  1048576000 cpu:         0.0
 (Enter /home/xinyan/g09/l123.exe)
 IRC-IRC-IRC-IRC-IRC-IRC-IRC-IRC-IRC-IRC-IRC-IRC-IRC-IRC-IRC-IRC-IRC-IRC
 Pt  2 Step number   1 out of a maximum of  20
 Point Number:   2          Path Number:   1
                    CURRENT STRUCTURE
                Cartesian Coordinates (Ang):                
 ---------------------------------------------------------------------
 Center     Atomic                     Coordinates (Angstroms)
 Number     Number                        X           Y           Z
 ---------------------------------------------------------------------
      1          6                    0.783600    0.000698   -0.001109
      2          1                    0.873989    0.075223    1.069314
      3          1                    0.873191    0.890530   -0.601183
      4          1                    0.874546   -0.963501   -0.472149
      5         17                    3.281611   -0.000160    0.000149
      6         35                   -1.606719   -0.000064    0.000154
 ---------------------------------------------------------------------
   CHANGE IN THE REACTION COORDINATE =    0.35819
   NET REACTION COORDINATE UP TO THIS POINT =    0.71728
  # OF POINTS ALONG THE PATH =   2
  # OF STEPS =   1

 Calculating another point on the path.
 Point Number  3 in FORWARD path direction.
 Using LQA Reaction Path Following.
   LQA: T_Est iteration completed in    4 iterations.
 IRC-IRC-IRC-IRC-IRC-IRC-IRC-IRC-IRC-IRC-IRC-IRC-IRC-IRC-IRC-IRC-IRC-IRC
 Leave Link  123 at Mon Mar 25 15:48:42 2019, MaxMem=  1048576000 cpu:         0.1
 (Enter /home/xinyan/g09/l202.exe)
                          Input orientation:                          
 ---------------------------------------------------------------------
 Center     Atomic      Atomic             Coordinates (Angstroms)
 Number     Number       Type             X           Y           Z
 ---------------------------------------------------------------------
      1          6           0        0.732133    0.000783   -0.001851
      2          1           0        0.866758    0.074646    1.064627
      3          1           0        0.865299    0.887653   -0.599421
      4          1           0        0.865538   -0.959650   -0.471589
      5         17           0        3.289324   -0.000163    0.000271
      6         35           0       -1.602003   -0.000081    0.000243
 ---------------------------------------------------------------------
                    Distance matrix (angstroms):
                    1          2          3          4          5
     1  C    0.000000
     2  H    1.077477   0.000000
     3  H    1.077665   1.852036   0.000000
     4  H    1.077442   1.851953   1.851721   0.000000
     5  Cl   2.557192   2.647126   2.650235   2.649151   0.000000
     6  Br   2.334137   2.689476   2.689841   2.689267   4.891327
                    6
     6  Br   0.000000
 Symmetry turned off by external request.
 Stoichiometry    CH3BrCl(1-)
 Framework group  C1[X(CH3BrCl)]
 Deg. of freedom    12
 Full point group                 C1      NOp   1
 Rotational constants (GHZ):    146.2131540      0.8546700      0.8546689
 Leave Link  202 at Mon Mar 25 15:48:42 2019, MaxMem=  1048576000 cpu:         0.0
 (Enter /home/xinyan/g09/l301.exe)
 Standard basis: 6-31G(d) (6D, 7F)
 Ernie: Thresh=  0.10000D-02 Tol=  0.10000D-05 Strict=F.
    70 basis functions,   175 primitive gaussians,    70 cartesian basis functions
    31 alpha electrons       31 beta electrons
       nuclear repulsion energy       173.6332509725 Hartrees.
 IExCor=  402 DFT=T Ex+Corr=B3LYP ExCW=0 ScaHFX=  0.200000
 ScaDFX=  0.800000  0.720000  1.000000  0.810000 ScalE2=  1.000000  1.000000
 IRadAn=      0 IRanWt=     -1 IRanGd=            0 ICorTp=0 IEmpDi=131
 NAtoms=    6 NActive=    6 NUniq=    6 SFac= 1.00D+00 NAtFMM=   60 NAOKFM=F Big=F
 Integral buffers will be    131072 words long.
 Raffenetti 2 integral format.
 Two-electron integral symmetry is turned off.
 R6Disp:  Grimme-D3 Dispersion energy=       -0.0040244498 Hartrees.
 Nuclear repulsion after empirical dispersion term =      173.6292265227 Hartrees.
 Leave Link  301 at Mon Mar 25 15:48:42 2019, MaxMem=  1048576000 cpu:         0.1
 (Enter /home/xinyan/g09/l302.exe)
 NPDir=0 NMtPBC=     1 NCelOv=     1 NCel=       1 NClECP=     1 NCelD=      1
         NCelK=      1 NCelE2=     1 NClLst=     1 CellRange=     0.0.
 One-electron integrals computed using PRISM.
 NBasis=    70 RedAO= T EigKep=  7.61D-04  NBF=    70
 NBsUse=    70 1.00D-06 EigRej= -1.00D+00 NBFU=    70
 Precomputing XC quadrature grid using
 IXCGrd= 4 IRadAn=           0 IRanWt=          -1 IRanGd=           0 AccXCQ= 0.00D+00.
 Generated NRdTot=       0 NPtTot=           0 NUsed=           0 NTot=          32
 NSgBfM=    70    70    70    70    70 MxSgAt=     6 MxSgA2=     6.
 Leave Link  302 at Mon Mar 25 15:48:42 2019, MaxMem=  1048576000 cpu:         0.4
 (Enter /home/xinyan/g09/l303.exe)
 DipDrv:  MaxL=1.
 Leave Link  303 at Mon Mar 25 15:48:42 2019, MaxMem=  1048576000 cpu:         0.0
 (Enter /home/xinyan/g09/l401.exe)
 Initial guess from the checkpoint file:  "/home/xinyan/scratch/Gau-3324.chk"
 B after Tr=    -0.001138    0.000008   -0.000047
         Rot=    1.000000   -0.000201   -0.000009   -0.000001 Ang=  -0.02 deg.
 Guess basis will be translated and rotated to current coordinates.
 JPrj=2 DoOrth=T DoCkMO=T.
 Generating alternative initial guess.
 ExpMin= 1.43D-01 ExpMax= 5.74D+05 ExpMxC= 5.74D+03 IAcc=2 IRadAn=         4 AccDes= 0.00D+00
 Harris functional with IExCor=  402 and IRadAn=       4 diagonalized for initial guess.
 HarFok:  IExCor=  402 AccDes= 0.00D+00 IRadAn=         4 IDoV= 1 UseB2=F ITyADJ=14
 ICtDFT=  3500011 ScaDFX=  1.000000  1.000000  1.000000  1.000000
 FoFCou: FMM=F IPFlag=           0 FMFlag=      100000 FMFlg1=           0
         NFxFlg=           0 DoJE=T BraDBF=F KetDBF=T FulRan=T
         wScrn=  0.000000 ICntrl=     500 IOpCl=  0 I1Cent=   200000004 NGrid=           0
         NMat0=    1 NMatS0=      1 NMatT0=    0 NMatD0=    1 NMtDS0=    0 NMtDT0=    0
 Symmetry not used in FoFCou.
 Harris En= -3072.07065433171    
 Leave Link  401 at Mon Mar 25 15:48:42 2019, MaxMem=  1048576000 cpu:         0.6
 (Enter /home/xinyan/g09/l502.exe)
 Closed shell SCF:
 Using DIIS extrapolation, IDIIS=  1040.
 Two-electron integral symmetry not used.
 Keep R1 ints in memory in canonical form, NReq=4126627.
 IVT=       34102 IEndB=       34102 NGot=  1048576000 MDV=  1045453044
 LenX=  1045453044 LenY=  1045447703
 Requested convergence on RMS density matrix=1.00D-08 within 128 cycles.
 Requested convergence on MAX density matrix=1.00D-06.
 Requested convergence on             energy=1.00D-06.
 No special actions if energy rises.
 FoFCou: FMM=F IPFlag=           0 FMFlag=           0 FMFlg1=           0
         NFxFlg=           0 DoJE=F BraDBF=F KetDBF=F FulRan=T
         wScrn=  0.000000 ICntrl=     600 IOpCl=  0 I1Cent=           0 NGrid=           0
         NMat0=    1 NMatS0=   2485 NMatT0=    0 NMatD0=    1 NMtDS0=    0 NMtDT0=    0
 Symmetry not used in FoFCou.
 Integral accuracy reduced to 1.0D-05 until final iterations.

 Cycle   1  Pass 0  IDiag  1:
 E= -3071.88524936253    
 DIIS: error= 4.98D-03 at cycle   1 NSaved=   1.
 NSaved= 1 IEnMin= 1 EnMin= -3071.88524936253     IErMin= 1 ErrMin= 4.98D-03
 ErrMax= 4.98D-03  0.00D+00 EMaxC= 1.00D-01 BMatC= 1.24D-03 BMatP= 1.24D-03
 IDIUse=3 WtCom= 9.50D-01 WtEn= 4.98D-02
 Coeff-Com:  0.100D+01
 Coeff-En:   0.100D+01
 Coeff:      0.100D+01
 Gap=     1.773 Goal=   None    Shift=    0.000
 GapD=    1.773 DampG=2.000 DampE=1.000 DampFc=2.0000 IDamp=-1.
 RMSDP=8.47D-04 MaxDP=1.42D-02              OVMax= 1.91D-02

 Cycle   2  Pass 0  IDiag  1:
 E= -3071.88609253345     Delta-E=       -0.000843170919 Rises=F Damp=F
 DIIS: error= 9.90D-04 at cycle   2 NSaved=   2.
 NSaved= 2 IEnMin= 2 EnMin= -3071.88609253345     IErMin= 2 ErrMin= 9.90D-04
 ErrMax= 9.90D-04  0.00D+00 EMaxC= 1.00D-01 BMatC= 8.75D-05 BMatP= 1.24D-03
 IDIUse=3 WtCom= 9.90D-01 WtEn= 9.90D-03
 Coeff-Com:  0.775D-01 0.923D+00
 Coeff-En:   0.000D+00 0.100D+01
 Coeff:      0.767D-01 0.923D+00
 Gap=     0.187 Goal=   None    Shift=    0.000
 RMSDP=5.29D-04 MaxDP=8.34D-03 DE=-8.43D-04 OVMax= 1.67D-02

 Cycle   3  Pass 0  IDiag  1:
 E= -3071.88602771647     Delta-E=        0.000064816976 Rises=F Damp=F
 DIIS: error= 1.09D-03 at cycle   3 NSaved=   3.
 NSaved= 3 IEnMin= 2 EnMin= -3071.88609253345     IErMin= 2 ErrMin= 9.90D-04
 ErrMax= 1.09D-03  0.00D+00 EMaxC= 1.00D-01 BMatC= 1.45D-04 BMatP= 8.75D-05
 IDIUse=3 WtCom= 2.33D-01 WtEn= 7.67D-01
 Coeff-Com:  0.235D-02 0.564D+00 0.434D+00
 Coeff-En:   0.000D+00 0.582D+00 0.418D+00
 Coeff:      0.547D-03 0.578D+00 0.422D+00
 Gap=     0.189 Goal=   None    Shift=    0.000
 RMSDP=2.67D-04 MaxDP=4.60D-03 DE= 6.48D-05 OVMax= 8.42D-03

 Cycle   4  Pass 0  IDiag  1:
 E= -3071.88623599505     Delta-E=       -0.000208278579 Rises=F Damp=F
 DIIS: error= 1.54D-04 at cycle   4 NSaved=   4.
 NSaved= 4 IEnMin= 4 EnMin= -3071.88623599505     IErMin= 4 ErrMin= 1.54D-04
 ErrMax= 1.54D-04  0.00D+00 EMaxC= 1.00D-01 BMatC= 8.17D-07 BMatP= 8.75D-05
 IDIUse=3 WtCom= 9.98D-01 WtEn= 1.54D-03
 Coeff-Com: -0.349D-02 0.154D+00 0.103D+00 0.746D+00
 Coeff-En:   0.000D+00 0.000D+00 0.000D+00 0.100D+01
 Coeff:     -0.349D-02 0.154D+00 0.103D+00 0.746D+00
 Gap=     0.189 Goal=   None    Shift=    0.000
 RMSDP=2.46D-05 MaxDP=3.83D-04 DE=-2.08D-04 OVMax= 9.77D-04

 Cycle   5  Pass 0  IDiag  1:
 E= -3071.88623675024     Delta-E=       -0.000000755188 Rises=F Damp=F
 DIIS: error= 9.20D-05 at cycle   5 NSaved=   5.
[...]

 Cycle   1  Pass 0  IDiag  1:
 E= -3071.89470886575    
 DIIS: error= 1.76D-03 at cycle   1 NSaved=   1.
 NSaved= 1 IEnMin= 1 EnMin= -3071.89470886575     IErMin= 1 ErrMin= 1.76D-03
 ErrMax= 1.76D-03  0.00D+00 EMaxC= 1.00D-01 BMatC= 2.00D-04 BMatP= 2.00D-04
 IDIUse=3 WtCom= 9.82D-01 WtEn= 1.76D-02
 Coeff-Com:  0.100D+01
 Coeff-En:   0.100D+01
 Coeff:      0.100D+01
 Gap=     1.606 Goal=   None    Shift=    0.000
 GapD=    1.606 DampG=2.000 DampE=1.000 DampFc=2.0000 IDamp=-1.
 RMSDP=2.70D-04 MaxDP=3.33D-03              OVMax= 5.86D-03

 Cycle   2  Pass 0  IDiag  1:
 E= -3071.89480567718     Delta-E=       -0.000096811434 Rises=F Damp=F
 DIIS: error= 2.72D-04 at cycle   2 NSaved=   2.
 NSaved= 2 IEnMin= 2 EnMin= -3071.89480567718     IErMin= 2 ErrMin= 2.72D-04
 ErrMax= 2.72D-04  0.00D+00 EMaxC= 1.00D-01 BMatC= 4.82D-06 BMatP= 2.00D-04
 IDIUse=3 WtCom= 9.97D-01 WtEn= 2.72D-03
 Coeff-Com:  0.264D-01 0.974D+00
 Coeff-En:   0.000D+00 0.100D+01
 Coeff:      0.264D-01 0.974D+00
 Gap=     0.178 Goal=   None    Shift=    0.000
 RMSDP=9.07D-05 MaxDP=1.81D-03 DE=-9.68D-05 OVMax= 2.41D-03

 Cycle   3  Pass 0  IDiag  1:
 E= -3071.89480360706     Delta-E=        0.000002070120 Rises=F Damp=F
 DIIS: error= 3.92D-04 at cycle   3 NSaved=   3.
 NSaved= 3 IEnMin= 2 EnMin= -3071.89480567718     IErMin= 2 ErrMin= 2.72D-04
 ErrMax= 3.92D-04  0.00D+00 EMaxC= 1.00D-01 BMatC= 7.34D-06 BMatP= 4.82D-06
 IDIUse=3 WtCom= 3.36D-01 WtEn= 6.64D-01
 Coeff-Com: -0.413D-02 0.556D+00 0.448D+00
 Coeff-En:   0.000D+00 0.570D+00 0.430D+00
 Coeff:     -0.139D-02 0.565D+00 0.436D+00
 Gap=     0.178 Goal=   None    Shift=    0.000
 RMSDP=4.25D-05 MaxDP=1.00D-03 DE= 2.07D-06 OVMax= 1.32D-03

 Cycle   4  Pass 0  IDiag  1:
 E= -3071.89481173346     Delta-E=       -0.000008126395 Rises=F Damp=F
 DIIS: error= 2.95D-05 at cycle   4 NSaved=   4.
 NSaved= 4 IEnMin= 4 EnMin= -3071.89481173346     IErMin= 4 ErrMin= 2.95D-05
 ErrMax= 2.95D-05  0.00D+00 EMaxC= 1.00D-01 BMatC= 4.84D-08 BMatP= 4.82D-06
 IDIUse=1 WtCom= 1.00D+00 WtEn= 0.00D+00
 Coeff-Com: -0.196D-02 0.145D+00 0.128D+00 0.729D+00
 Coeff:     -0.196D-02 0.145D+00 0.128D+00 0.729D+00
 Gap=     0.178 Goal=   None    Shift=    0.000
 RMSDP=7.40D-06 MaxDP=8.81D-05 DE=-8.13D-06 OVMax= 1.79D-04

 Initial convergence to 1.0D-05 achieved.  Increase integral accuracy.
 Cycle   5  Pass 1  IDiag  1:
 E= -3071.89569526962     Delta-E=       -0.000883536158 Rises=F Damp=F
 DIIS: error= 1.85D-04 at cycle   1 NSaved=   1.
 NSaved= 1 IEnMin= 1 EnMin= -3071.89569526962     IErMin= 1 ErrMin= 1.85D-04
 ErrMax= 1.85D-04  0.00D+00 EMaxC= 1.00D-01 BMatC= 7.23D-07 BMatP= 7.23D-07
 IDIUse=3 WtCom= 9.98D-01 WtEn= 1.85D-03
 Coeff-Com:  0.100D+01
 Coeff-En:   0.100D+01
 Coeff:      0.100D+01
 Gap=     0.178 Goal=   None    Shift=    0.000
 RMSDP=7.40D-06 MaxDP=8.81D-05 DE=-8.84D-04 OVMax= 2.31D-04

 Cycle   6  Pass 1  IDiag  1:
 E= -3071.89569557988     Delta-E=       -0.000000310263 Rises=F Damp=F
 DIIS: error= 3.84D-05 at cycle   2 NSaved=   2.
 NSaved= 2 IEnMin= 2 EnMin= -3071.89569557988     IErMin= 2 ErrMin= 3.84D-05
 ErrMax= 3.84D-05  0.00D+00 EMaxC= 1.00D-01 BMatC= 5.61D-08 BMatP= 7.23D-07
 IDIUse=1 WtCom= 1.00D+00 WtEn= 0.00D+00
 Coeff-Com:  0.116D+00 0.884D+00
 Coeff:      0.116D+00 0.884D+00
 Gap=     0.178 Goal=   None    Shift=    0.000
 RMSDP=1.22D-05 MaxDP=1.89D-04 DE=-3.10D-07 OVMax= 2.25D-04

 Cycle   7  Pass 1  IDiag  1:
 E= -3071.89569561265     Delta-E=       -0.000000032770 Rises=F Damp=F
 DIIS: error= 2.65D-05 at cycle   3 NSaved=   3.
 NSaved= 3 IEnMin= 3 EnMin= -3071.89569561265     IErMin= 3 ErrMin= 2.65D-05
 ErrMax= 2.65D-05  0.00D+00 EMaxC= 1.00D-01 BMatC= 3.06D-08 BMatP= 5.61D-08
 IDIUse=1 WtCom= 1.00D+00 WtEn= 0.00D+00
 Coeff-Com: -0.210D-02 0.424D+00 0.578D+00
 Coeff:     -0.210D-02 0.424D+00 0.578D+00
 Gap=     0.178 Goal=   None    Shift=    0.000
 RMSDP=4.98D-06 MaxDP=7.45D-05 DE=-3.28D-08 OVMax= 9.53D-05

 Cycle   8  Pass 1  IDiag  1:
 E= -3071.89569564706     Delta-E=       -0.000000034414 Rises=F Damp=F
 DIIS: error= 2.95D-06 at cycle   4 NSaved=   4.
 NSaved= 4 IEnMin= 4 EnMin= -3071.89569564706     IErMin= 4 ErrMin= 2.95D-06
 ErrMax= 2.95D-06  0.00D+00 EMaxC= 1.00D-01 BMatC= 3.33D-10 BMatP= 3.06D-08
 IDIUse=1 WtCom= 1.00D+00 WtEn= 0.00D+00
 Coeff-Com: -0.193D-02 0.182D+00 0.252D+00 0.568D+00
 Coeff:     -0.193D-02 0.182D+00 0.252D+00 0.568D+00
 Gap=     0.178 Goal=   None    Shift=    0.000
 RMSDP=3.47D-07 MaxDP=4.69D-06 DE=-3.44D-08 OVMax= 5.92D-06

 Cycle   9  Pass 1  IDiag  1:
 E= -3071.89569564739     Delta-E=       -0.000000000332 Rises=F Damp=F
 DIIS: error= 9.05D-07 at cycle   5 NSaved=   5.
 NSaved= 5 IEnMin= 5 EnMin= -3071.89569564739     IErMin= 5 ErrMin= 9.05D-07
 ErrMax= 9.05D-07  0.00D+00 EMaxC= 1.00D-01 BMatC= 2.31D-11 BMatP= 3.33D-10
 IDIUse=1 WtCom= 1.00D+00 WtEn= 0.00D+00
 Coeff-Com: -0.581D-03 0.283D-01 0.358D-01 0.218D+00 0.719D+00
 Coeff:     -0.581D-03 0.283D-01 0.358D-01 0.218D+00 0.719D+00
 Gap=     0.178 Goal=   None    Shift=    0.000
 RMSDP=9.67D-08 MaxDP=1.97D-06 DE=-3.32D-10 OVMax= 2.79D-06

 Cycle  10  Pass 1  IDiag  1:
 E= -3071.89569564742     Delta-E=       -0.000000000027 Rises=F Damp=F
 DIIS: error= 2.08D-07 at cycle   6 NSaved=   6.
 NSaved= 6 IEnMin= 6 EnMin= -3071.89569564742     IErMin= 6 ErrMin= 2.08D-07
 ErrMax= 2.08D-07  0.00D+00 EMaxC= 1.00D-01 BMatC= 4.28D-12 BMatP= 2.31D-11
 IDIUse=1 WtCom= 1.00D+00 WtEn= 0.00D+00
 Coeff-Com: -0.158D-03-0.141D-06-0.191D-02 0.673D-01 0.382D+00 0.553D+00
 Coeff:     -0.158D-03-0.141D-06-0.191D-02 0.673D-01 0.382D+00 0.553D+00
 Gap=     0.178 Goal=   None    Shift=    0.000
 RMSDP=3.92D-08 MaxDP=1.03D-06 DE=-2.73D-11 OVMax= 9.54D-07

 Cycle  11  Pass 1  IDiag  1:
 E= -3071.89569564741     Delta-E=        0.000000000008 Rises=F Damp=F
 DIIS: error= 1.35D-08 at cycle   7 NSaved=   7.
 NSaved= 7 IEnMin= 6 EnMin= -3071.89569564742     IErMin= 7 ErrMin= 1.35D-08
 ErrMax= 1.35D-08  0.00D+00 EMaxC= 1.00D-01 BMatC= 2.16D-14 BMatP= 4.28D-12
 IDIUse=1 WtCom= 1.00D+00 WtEn= 0.00D+00
 Coeff-Com: -0.156D-05-0.145D-02-0.191D-02 0.530D-02 0.474D-01 0.101D+00
 Coeff-Com:  0.850D+00
 Coeff:     -0.156D-05-0.145D-02-0.191D-02 0.530D-02 0.474D-01 0.101D+00
 Coeff:      0.850D+00
 Gap=     0.178 Goal=   None    Shift=    0.000
 RMSDP=4.25D-09 MaxDP=8.24D-08 DE= 8.19D-12 OVMax= 6.09D-08

 SCF Done:  E(RB3LYP) =  -3071.89569565     A.U. after   11 cycles
            NFock= 11  Conv=0.43D-08     -V/T= 2.0057
 KE= 3.054493989949D+03 PE=-7.667300872165D+03 EE= 1.374813175186D+03
 Leave Link  502 at Mon Mar 25 15:49:31 2019, MaxMem=  1048576000 cpu:         3.5
 (Enter /home/xinyan/g09/l801.exe)
 DoSCS=F DFT=T ScalE2(SS,OS)=  1.000000  1.000000
 Range of M.O.s used for correlation:     1    70
 NBasis=    70 NAE=    31 NBE=    31 NFC=     0 NFV=     0
 NROrb=     70 NOA=    31 NOB=    31 NVA=    39 NVB=    39

 **** Warning!!: The largest alpha MO coefficient is  0.19602861D+02

 Leave Link  801 at Mon Mar 25 15:49:31 2019, MaxMem=  1048576000 cpu:         0.1
 (Enter /home/xinyan/g09/l1101.exe)
 Leave Link 1101 at Mon Mar 25 15:49:31 2019, MaxMem=  1048576000 cpu:         0.1
 (Enter /home/xinyan/g09/l1102.exe)
 Symmetrizing basis deriv contribution to polar:
 IMax=3 JMax=2 DiffMx= 0.00D+00
 Leave Link 1102 at Mon Mar 25 15:49:31 2019, MaxMem=  1048576000 cpu:         0.1
 (Enter /home/xinyan/g09/l1110.exe)
 Leave Link 1110 at Mon Mar 25 15:49:32 2019, MaxMem=  1048576000 cpu:         0.0
 (Enter /home/xinyan/g09/l1002.exe)
 Minotr:  Closed shell wavefunction.
 Leave Link 1002 at Mon Mar 25 15:49:32 2019, MaxMem=  1048576000 cpu:         0.0
 (Enter /home/xinyan/g09/l701.exe)
 Compute integral first derivatives.
 ... and contract with generalized density number  0.
 R6Disp: Adding Grimme-D3 dispersion energy 1st derivatives to the gradient.
 Leave Link  701 at Mon Mar 25 15:49:32 2019, MaxMem=  1048576000 cpu:         0.3
 (Enter /home/xinyan/g09/l702.exe)
 L702 exits ... SP integral derivatives will be done elsewhere.
 Leave Link  702 at Mon Mar 25 15:49:32 2019, MaxMem=  1048576000 cpu:         0.0
 (Enter /home/xinyan/g09/l703.exe)
 Compute integral first derivatives, UseDBF=F ICtDFT=           0.
 Integral derivatives from FoFJK, PRISM(SPDF).
 Calling FoFJK, ICntrl=      2147 FMM=F ISym2X=0 I1Cent= 0 IOpClX= 0 NMat=1 NMatS=1 NMatT=0.
 FoFJK:  IHMeth= 1 ICntrl=    2147 DoSepK=F KAlg= 0 I1Cent=   0 FoldK=F
 IRaf=         0 NMat=   1 IRICut=       1 DoRegI=T DoRafI=F ISym2E= 0.
 FoFCou: FMM=F IPFlag=           0 FMFlag=      100000 FMFlg1=         800
         NFxFlg=           0 DoJE=F BraDBF=F KetDBF=F FulRan=T
         wScrn=  0.000000 ICntrl=    2147 IOpCl=  0 I1Cent=           0 NGrid=           0
         NMat0=    1 NMatS0=      1 NMatT0=    0 NMatD0=    1 NMtDS0=    0 NMtDT0=    0
 Symmetry not used in FoFCou.
 Leave Link  703 at Mon Mar 25 15:49:32 2019, MaxMem=  1048576000 cpu:         1.9
 (Enter /home/xinyan/g09/l716.exe)
 Dipole        = 1.26257655D+00 4.81463420D-03-2.63257280D-03
 Polarizability= 0.00000000D+00 0.00000000D+00 0.00000000D+00
                 0.00000000D+00 0.00000000D+00 0.00000000D+00
 -------------------------------------------------------------------
 Center     Atomic                   Forces (Hartrees/Bohr)
 Number     Number              X              Y              Z
 -------------------------------------------------------------------
      1        6          -0.001784149   -0.000868118    0.000191104
      2        1           0.000147963   -0.000007177   -0.000577659
      3        1          -0.000337139    0.000041737   -0.000069539
      4        1           0.000352897    0.000908959    0.000368093
      5       17           0.002140295   -0.000092341    0.000026506
      6       35          -0.000519866    0.000016940    0.000061494
 -------------------------------------------------------------------
 Cartesian Forces:  Max     0.002140295 RMS     0.000760112
 Z-matrix is all fixed cartesians, so copy forces.
 Leave Link  716 at Mon Mar 25 15:49:32 2019, MaxMem=  1048576000 cpu:         0.0
 (Enter /home/xinyan/g09/l123.exe)
 IRC-IRC-IRC-IRC-IRC-IRC-IRC-IRC-IRC-IRC-IRC-IRC-IRC-IRC-IRC-IRC-IRC-IRC
 Pt 26 Step number   1 out of a maximum of  20
 Point Number:  14          Path Number:   2
                    CURRENT STRUCTURE
                Cartesian Coordinates (Ang):                
 ---------------------------------------------------------------------
 Center     Atomic                     Coordinates (Angstroms)
 Number     Number                        X           Y           Z
 ---------------------------------------------------------------------
      1          6                    1.430177    0.006488   -0.003123
      2          1                    1.090639    0.086585    1.025741
      3          1                    1.096888    0.859318   -0.585694
      4          1                    1.085014   -0.922512   -0.449704
      5         17                    3.300013   -0.001051   -0.003036
      6         35                   -1.721500   -0.000820    0.001943
 ---------------------------------------------------------------------
   CHANGE IN THE REACTION COORDINATE =    0.35164
   NET REACTION COORDINATE UP TO THIS POINT =    4.90622
  # OF POINTS ALONG THE PATH =  26
  # OF STEPS =   1

 Calculating another point on the path.
 Point Number 15 in REVERSE path direction.
 Using LQA Reaction Path Following.
   LQA: T_Est iteration completed in    2 iterations.
 PES minimum detected within a second-order step.
 Calculation of REVERSE path complete.
 Reaction path calculation complete.
 
 Energies reported relative to the TS energy of       -3071.885376
 --------------------------------------------------------------------------
    Summary of reaction path following
 --------------------------------------------------------------------------
                        Energy    RxCoord
   1                   -0.01032  -4.90622
   2                   -0.01027  -4.55458
   3                   -0.01012  -4.20842
   4                   -0.00991  -3.85981
   5                   -0.00959  -3.51876
   6                   -0.00899  -3.20160
   7                   -0.00877  -2.86604
   8                   -0.00802  -2.50985
   9                   -0.00668  -2.15130
  10                   -0.00508  -1.79234
  11                   -0.00347  -1.43373
  12                   -0.00205  -1.07521
  13                   -0.00094  -0.71730
  14                   -0.00024  -0.35909
  15                    0.00000   0.00000
  16                   -0.00025   0.35909
  17                   -0.00094   0.71728
  18                   -0.00200   1.07522
  19                   -0.00328   1.43369
  20                   -0.00463   1.79227
  21                   -0.00589   2.15121
  22                   -0.00687   2.50964
  23                   -0.00730   2.86472
  24                   -0.00739   3.19169
  25                   -0.00783   3.50689
  26                   -0.00796   3.84817
  27                   -0.00801   4.18834
 --------------------------------------------------------------------------
 
 Total number of points:                   26
 Total number of gradient calculations:    27
 Total number of Hessian calculations:      1
 IRC-IRC-IRC-IRC-IRC-IRC-IRC-IRC-IRC-IRC-IRC-IRC-IRC-IRC-IRC-IRC-IRC-IRC
 Leave Link  123 at Mon Mar 25 15:49:32 2019, MaxMem=  1048576000 cpu:         0.2
 (Enter /home/xinyan/g09/l202.exe)
                          Input orientation:                          
 ---------------------------------------------------------------------
 Center     Atomic      Atomic             Coordinates (Angstroms)
 Number     Number       Type             X           Y           Z
 ---------------------------------------------------------------------
      1          6           0        1.430177    0.006488   -0.003123
      2          1           0        1.090639    0.086585    1.025741
      3          1           0        1.096888    0.859318   -0.585694
      4          1           0        1.085014   -0.922512   -0.449704
      5         17           0        3.300013   -0.001051   -0.003036
      6         35           0       -1.721500   -0.000820    0.001943
 ---------------------------------------------------------------------
                    Distance matrix (angstroms):
                    1          2          3          4          5
     1  C    0.000000
     2  H    1.086399   0.000000
     3  H    1.085260   1.787143   0.000000
     4  H    1.087020   1.787525   1.787051   0.000000
     5  Cl   1.869852   2.438729   2.435875   2.440251   0.000000
     6  Br   3.151690   2.993982   3.004741   2.988314   5.021516
                    6
     6  Br   0.000000
 Symmetry turned off by external request.
 Stoichiometry    CH3BrCl(1-)
 Framework group  C1[X(CH3BrCl)]
 Deg. of freedom    12
 Full point group                 C1      NOp   1
 Rotational constants (GHZ):    156.9525550      0.7842063      0.7842056
 Leave Link  202 at Mon Mar 25 15:49:32 2019, MaxMem=  1048576000 cpu:         0.0
 (Enter /home/xinyan/g09/l601.exe)
 Copying SCF densities to generalized density rwf, IOpCl= 0 IROHF=0.

 **********************************************************************

            Population analysis using the SCF density.

 **********************************************************************

 Alpha  occ. eigenvalues -- -482.59823-101.39287 -61.56054 -56.07973 -56.07926
 Alpha  occ. eigenvalues --  -56.07926 -10.08749  -9.30922  -8.27121  -7.07224
 Alpha  occ. eigenvalues --   -7.06387  -7.06387  -6.21764  -6.21657  -6.21656
 Alpha  occ. eigenvalues --   -2.33465  -2.33438  -2.33437  -2.33351  -2.33351
 Alpha  occ. eigenvalues --   -0.69207  -0.52812  -0.44228  -0.29108  -0.29059
 Alpha  occ. eigenvalues --   -0.25638  -0.16101  -0.16098  -0.01676  -0.01428
 Alpha  occ. eigenvalues --   -0.01426
 Alpha virt. eigenvalues --    0.16384   0.26504   0.30560   0.30564   0.47801
 Alpha virt. eigenvalues --    0.52461   0.58724   0.58734   0.59531   0.66328
 Alpha virt. eigenvalues --    0.66382   0.67095   0.74757   0.74770   0.74960
 Alpha virt. eigenvalues --    0.74984   0.76704   0.77103   0.77117   1.00378
 Alpha virt. eigenvalues --    1.00397   1.01258   1.05127   1.05145   1.08077
 Alpha virt. eigenvalues --    1.08086   1.12373   1.16201   1.41106   1.80772
 Alpha virt. eigenvalues --    1.82630   1.82640   2.28293   2.37393   2.37531
 Alpha virt. eigenvalues --    4.25120   4.42296   8.86631  72.31651
          Condensed to atoms (all electrons):
               1          2          3          4          5          6
     1  C    5.252714   0.371746   0.372053   0.371561   0.107201  -0.010224
     2  H    0.371746   0.496940  -0.024380  -0.024353  -0.036936   0.010919
     3  H    0.372053  -0.024380   0.497923  -0.024394  -0.037235   0.010591
     4  H    0.371561  -0.024353  -0.024394   0.496489  -0.036774   0.011097
     5  Cl   0.107201  -0.036936  -0.037235  -0.036774  17.251369   0.003382
     6  Br  -0.010224   0.010919   0.010591   0.011097   0.003382  35.876056
 Mulliken charges:
               1
     1  C   -0.465051
     2  H    0.206064
     3  H    0.205441
     4  H    0.206374
     5  Cl  -0.251008
     6  Br  -0.901821
 Sum of Mulliken charges =  -1.00000
 Mulliken charges with hydrogens summed into heavy atoms:
               1
     1  C    0.152828
     5  Cl  -0.251008
     6  Br  -0.901821
 APT charges:
               1
     1  C   -0.818129
     2  H    0.335126
     3  H    0.338122
     4  H    0.333525
     5  Cl  -0.296303
     6  Br  -0.892341
 Sum of APT charges =  -1.00000
 APT charges with hydrogens summed into heavy atoms:
               1
     1  C    0.188644
     5  Cl  -0.296303
     6  Br  -0.892341
 Electronic spatial extent (au):  <R**2>=           1214.0339
 Charge=             -1.0000 electrons
 Dipole moment (field-independent basis, Debye):
    X=              3.2091    Y=              0.0122    Z=             -0.0067  Tot=              3.2092
 Quadrupole moment (field-independent basis, Debye-Ang):
   XX=            -71.2468   YY=            -41.3981   ZZ=            -41.3965
   XY=              0.0128   XZ=              0.0269   YZ=              0.0007
 Traceless Quadrupole moment (field-independent basis, Debye-Ang):
   XX=            -19.8997   YY=              9.9491   ZZ=              9.9506
   XY=              0.0128   XZ=              0.0269   YZ=              0.0007
 Octapole moment (field-independent basis, Debye-Ang**2):
  XXX=            -86.7366  YYY=             -0.2152  ZZZ=              0.8276  XYY=            -17.4487
  XXY=              0.0090  XXZ=              0.0494  XZZ=            -17.4478  YZZ=              0.1660
  YYZ=             -0.7448  XYZ=             -0.0065
 Hexadecapole moment (field-independent basis, Debye-Ang**3):
 XXXX=          -1568.6774 YYYY=            -54.3600 ZZZZ=            -54.3622 XXXY=             -0.2352
 XXXZ=              0.9103 YYYX=             -0.3376 YYYZ=             -0.0180 ZZZX=              1.5675
 ZZZY=              0.0029 XXYY=           -241.6723 XXZZ=           -241.6671 YYZZ=            -18.1102
 XXYZ=             -0.0101 YYXZ=             -0.6210 ZZXY=              0.1539
 N-N= 1.660980113820D+02 E-N=-7.667300871535D+03  KE= 3.054493989949D+03
  Exact polarizability:   0.000   0.000   0.000   0.000   0.000   0.000
 Approx polarizability: 108.714  -0.027  42.200  -0.059   0.012  42.202
 No NMR shielding tensors so no spin-rotation constants.
 Leave Link  601 at Mon Mar 25 15:49:32 2019, MaxMem=  1048576000 cpu:         0.2
 (Enter /home/xinyan/g09/l9999.exe)

 This type of calculation cannot be archived.


  ON THE CHOICE OF THE CORRECT LANGUAGE -
 I SPEAK SPANISH TO GOD, ITALIAN TO WOMEN,
 FRENCH TO MEN, AND GERMAN TO MY HORSE.
          -- CHARLES V
 Job cpu time:       0 days  0 hours  3 minutes 33.3 seconds.
 File lengths (MBytes):  RWF=      8 Int=      0 D2E=      0 Chk=      2 Scr=      1
 Normal termination of Gaussian 09 at Mon Mar 25 15:49:32 2019.
