 Entering Gaussian System, Link 0=g09
 Input=sn2_ts.gjf
 Output=sn2_ts.log
 Initial command:
 /mnt/e/g09/l1.exe "/mnt/e/scratch/Gau-3440.inp" -scrdir="/mnt/e/scratch/"
 Entering Link 1 = /mnt/e/g09/l1.exe PID=      3442.
  
 Copyright (c) 1988,1990,1992,1993,1995,1998,2003,2009,2013,
            Gaussian, Inc.  All Rights Reserved.
  
 This is part of the Gaussian(R) 09 program.  It is based on
 the Gaussian(R) 03 system (copyright 2003, Gaussian, Inc.),
 the Gaussian(R) 98 system (copyright 1998, Gaussian, Inc.),
 the Gaussian(R) 94 system (copyright 1995, Gaussian, Inc.),
 the Gaussian 92(TM) system (copyright 1992, Gaussian, Inc.),
 the Gaussian 90(TM) system (copyright 1990, Gaussian, Inc.),
 the Gaussian 88(TM) system (copyright 1988, Gaussian, Inc.),
 the Gaussian 86(TM) system (copyright 1986, Carnegie Mellon
 University), and the Gaussian 82(TM) system (copyright 1983,
 Carnegie Mellon University). Gaussian is a federally registered
 trademark of Gaussian, Inc.
  
 This software contains proprietary and confidential information,
 including trade secrets, belonging to Gaussian, Inc.
  
 This software is provided under written license and may be
 used, copied, transmitted, or stored only in accord with that
 written license.
  
 The following legend is applicable only to US Government
 contracts under FAR:
  
                    RESTRICTED RIGHTS LEGEND
  
 Use, reproduction and disclosure by the US Government is
 subject to restrictions as set forth in subparagraphs (a)
 and (c) of the Commercial Computer Software - Restricted
 Rights clause in FAR 52.227-19.
  
 Gaussian, Inc.
 340 Quinnipiac St., Bldg. 40, Wallingford CT 06492
  
  
 ---------------------------------------------------------------
 Warning -- This program may not be used in any manner that
 competes with the business of Gaussian, Inc. or will provide
 assistance to any competitor of Gaussian, Inc.  The licensee
 of this program is prohibited from giving any competitor of
 Gaussian, Inc. access to this program.  By using this program,
 the user acknowledges that Gaussian, Inc. is engaged in the
 business of creating and licensing software in the field of
 computational chemistry and represents and warrants to the
 licensee that it is not a competitor of Gaussian, Inc. and that
 it will not use this program in any manner prohibited above.
 ---------------------------------------------------------------
  

 Cite this work as:
 Gaussian 09, Revision D.01,
 M. J. Frisch, G. W. Trucks, H. B. Schlegel, G. E. Scuseria, 
 M. A. Robb, J. R. Cheeseman, G. Scalmani, V. Barone, B. Mennucci, 
 G. A. Petersson, H. Nakatsuji, M. Caricato, X. Li, H. P. Hratchian, 
 A. F. Izmaylov, J. Bloino, G. Zheng, J. L. Sonnenberg, M. Hada, 
 M. Ehara, K. Toyota, R. Fukuda, J. Hasegawa, M. Ishida, T. Nakajima, 
 Y. Honda, O. Kitao, H. Nakai, T. Vreven, J. A. Montgomery, Jr., 
 J. E. Peralta, F. Ogliaro, M. Bearpark, J. J. Heyd, E. Brothers, 
 K. N. Kudin, V. N. Staroverov, T. Keith, R. Kobayashi, J. Normand, 
 K. Raghavachari, A. Rendell, J. C. Burant, S. S. Iyengar, J. Tomasi, 
 M. Cossi, N. Rega, J. M. Millam, M. Klene, J. E. Knox, J. B. Cross, 
 V. Bakken, C. Adamo, J. Jaramillo, R. Gomperts, R. E. Stratmann, 
 O. Yazyev, A. J. Austin, R. Cammi, C. Pomelli, J. W. Ochterski, 
 R. L. Martin, K. Morokuma, V. G. Zakrzewski, G. A. Voth, 
 P. Salvador, J. J. Dannenberg, S. Dapprich, A. D. Daniels, 
 O. Farkas, J. B. Foresman, J. V. Ortiz, J. Cioslowski, 
 and D. J. Fox, Gaussian, Inc., Wallingford CT, 2013.
 
 ******************************************
 Gaussian 09:  ES64L-G09RevD.01 24-Apr-2013
                24-Mar-2019 
 ******************************************
 %nproc=8
 Will use up to    8 processors via shared memory.
 %mem=1000mw
 ---------------------------------------------------------------
 #p B3LYP/6-31G* em=gd3 opt(ts,calcfc,noeigentest) freq temp=300
 ---------------------------------------------------------------
 1/5=1,10=4,11=1,14=-1,18=20,26=3,38=1,112=300000/1,3;
 2/9=110,12=2,17=6,18=5,40=1/2;
 3/5=1,6=6,7=1,11=2,16=1,25=1,30=1,71=2,74=-5,124=31,140=1/1,2,3;
 4//1;
 5/5=2,38=5/2;
 8/6=4,10=90,11=11/1;
 11/6=1,8=1,9=11,15=111,16=1/1,2,10;
 10/6=1,13=1/2;
 6/7=2,8=2,9=2,10=2,28=1/1;
 7/10=1,18=20,25=1/1,2,3,16;
 1/5=1,10=4,11=1,14=-1,18=20,26=3/3(2);
 2/9=110/2;
 99//99;
 2/9=110/2;
 3/5=1,6=6,7=1,11=2,16=1,25=1,30=1,71=1,74=-5,124=31/1,2,3;
 4/5=5,16=3,69=1/1;
 5/5=2,38=5/2;
 7//1,2,3,16;
 1/5=1,11=1,14=-1,18=20,26=3/3(-5);
 2/9=110/2;
 6/7=2,8=2,9=2,10=2,19=2,28=1/1;
 99/9=1/99;
 Leave Link    1 at Sun Mar 24 12:58:38 2019, MaxMem=  1048576000 cpu:         0.3
 (Enter /mnt/e/g09/l101.exe)
 -----
 Title
 -----
 Symbolic Z-matrix:
 Charge = -1 Multiplicity = 1
 C                     0.29225  -0.61654   0.26656 
 H                     0.85095  -1.42706   0. 
 H                     0.85097   0.08615   0.87365 
 H                    -0.5757   -0.41824   0. 
 Cl                    1.08097   0.41141  -1.43703 
 Br                   -0.84051  -1.72822   1.76102 
 
 NAtoms=      6 NQM=        6 NQMF=       0 NMMI=      0 NMMIF=      0
                NMic=       0 NMicF=      0.
                    Isotopes and Nuclear Properties:
 (Nuclear quadrupole moments (NQMom) in fm**2, nuclear magnetic moments (NMagM)
  in nuclear magnetons)

  Atom         1           2           3           4           5           6
 IAtWgt=          12           1           1           1          35          79
 AtmWgt=  12.0000000   1.0078250   1.0078250   1.0078250  34.9688527  78.9183361
 NucSpn=           0           1           1           1           3           3
 AtZEff=   0.0000000   0.0000000   0.0000000   0.0000000   0.0000000   0.0000000
 NQMom=    0.0000000   0.0000000   0.0000000   0.0000000  -8.1650000  31.3000000
 NMagM=    0.0000000   2.7928460   2.7928460   2.7928460   0.8218740   2.1063990
 AtZNuc=   6.0000000   1.0000000   1.0000000   1.0000000  17.0000000  35.0000000
 Leave Link  101 at Sun Mar 24 12:58:39 2019, MaxMem=  1048576000 cpu:         3.2
 (Enter /mnt/e/g09/l103.exe)

 GradGradGradGradGradGradGradGradGradGradGradGradGradGradGradGradGradGrad
 Berny optimization.
 Initialization pass.
                           ----------------------------
                           !    Initial Parameters    !
                           ! (Angstroms and Degrees)  !
 --------------------------                            --------------------------
 ! Name  Definition              Value          Derivative Info.                !
 --------------------------------------------------------------------------------
 ! R1    R(1,2)                  1.0199         calculate D2E/DX2 analytically  !
 ! R2    R(1,3)                  1.0837         calculate D2E/DX2 analytically  !
 ! R3    R(1,4)                  0.9294         calculate D2E/DX2 analytically  !
 ! R4    R(1,5)                  2.1403         calculate D2E/DX2 analytically  !
 ! R5    R(1,6)                  2.18           calculate D2E/DX2 analytically  !
 ! A1    A(2,1,3)              112.2891         calculate D2E/DX2 analytically  !
 ! A2    A(2,1,4)              127.3167         calculate D2E/DX2 analytically  !
 ! A3    A(2,1,5)               88.3829         calculate D2E/DX2 analytically  !
 ! A4    A(2,1,6)               93.3573         calculate D2E/DX2 analytically  !
 ! A5    A(3,1,4)              120.252          calculate D2E/DX2 analytically  !
 ! A6    A(3,1,5)               86.8176         calculate D2E/DX2 analytically  !
 ! A7    A(3,1,6)              102.3868         calculate D2E/DX2 analytically  !
 ! A8    A(4,1,5)               90.7666         calculate D2E/DX2 analytically  !
 ! A9    A(4,1,6)               79.6393         calculate D2E/DX2 analytically  !
 ! A10   L(5,1,6,2,-1)         181.7402         calculate D2E/DX2 analytically  !
 ! A11   L(5,1,6,2,-2)         190.7437         calculate D2E/DX2 analytically  !
 ! D1    D(2,1,4,3)           -175.3138         calculate D2E/DX2 analytically  !
 ! D2    D(2,1,5,3)           -112.432          calculate D2E/DX2 analytically  !
 ! D3    D(2,1,6,3)            113.6952         calculate D2E/DX2 analytically  !
 ! D4    D(2,1,5,4)            127.3108         calculate D2E/DX2 analytically  !
 ! D5    D(2,1,6,4)           -127.3442         calculate D2E/DX2 analytically  !
 ! D6    D(2,1,6,5)            -98.9481         calculate D2E/DX2 analytically  !
 ! D7    D(3,1,5,4)           -120.2572         calculate D2E/DX2 analytically  !
 ! D8    D(3,1,6,4)            118.9606         calculate D2E/DX2 analytically  !
 ! D9    D(3,1,6,5)            147.3568         calculate D2E/DX2 analytically  !
 ! D10   D(4,1,6,5)             28.3962         calculate D2E/DX2 analytically  !
 --------------------------------------------------------------------------------
 Trust Radius=3.00D-01 FncErr=1.00D-07 GrdErr=1.00D-06
 Number of steps in this run=     36 maximum allowed number of steps=    100.
 Search for a saddle point of order  1.
 GradGradGradGradGradGradGradGradGradGradGradGradGradGradGradGradGradGrad

 Leave Link  103 at Sun Mar 24 12:58:39 2019, MaxMem=  1048576000 cpu:         0.8
 (Enter /mnt/e/g09/l202.exe)
                          Input orientation:                          
 ---------------------------------------------------------------------
 Center     Atomic      Atomic             Coordinates (Angstroms)
 Number     Number       Type             X           Y           Z
 ---------------------------------------------------------------------
      1          6           0        0.292248   -0.616539    0.266563
      2          1           0        0.850951   -1.427061    0.000000
      3          1           0        0.850969    0.086147    0.873652
      4          1           0       -0.575703   -0.418238    0.000000
      5         17           0        1.080973    0.411413   -1.437034
      6         35           0       -0.840514   -1.728222    1.761024
 ---------------------------------------------------------------------
                    Distance matrix (angstroms):
                    1          2          3          4          5
     1  C    0.000000
     2  H    1.019878   0.000000
     3  H    1.083740   1.747302   0.000000
     4  H    0.929365   1.747303   1.747303   0.000000
     5  Cl   2.140331   2.344774   2.344775   2.344774   0.000000
     6  Br   2.180000   2.460275   2.634479   2.210743   4.300898
                    6
     6  Br   0.000000
 Stoichiometry    CH3BrCl(1-)
 Framework group  C1[X(CH3BrCl)]
 Deg. of freedom    12
 Full point group                 C1      NOp   1
 Largest Abelian subgroup         C1      NOp   1
 Largest concise Abelian subgroup C1      NOp   1
                         Standard orientation:                         
 ---------------------------------------------------------------------
 Center     Atomic      Atomic             Coordinates (Angstroms)
 Number     Number       Type             X           Y           Z
 ---------------------------------------------------------------------
      1          6           0        0.651132    0.165400    0.000000
      2          1           0        0.696946    0.328330    1.005736
      3          1           0        0.805689    1.073475   -0.570969
      4          1           0        0.554136   -0.650252   -0.434767
      5         17           0        2.780071   -0.055142    0.000000
      6         35           0       -1.520708   -0.023044    0.000000
 ---------------------------------------------------------------------
 Rotational constants (GHZ):    136.5021578      1.0997082      1.0982137
 Leave Link  202 at Sun Mar 24 12:58:39 2019, MaxMem=  1048576000 cpu:         0.1
 (Enter /mnt/e/g09/l301.exe)
 Standard basis: 6-31G(d) (6D, 7F)
 Ernie: Thresh=  0.10000D-02 Tol=  0.10000D-05 Strict=F.
 There are    70 symmetry adapted cartesian basis functions of A   symmetry.
 There are    70 symmetry adapted basis functions of A   symmetry.
    70 basis functions,   175 primitive gaussians,    70 cartesian basis functions
    31 alpha electrons       31 beta electrons
       nuclear repulsion energy       194.2163513506 Hartrees.
 IExCor=  402 DFT=T Ex+Corr=B3LYP ExCW=0 ScaHFX=  0.200000
 ScaDFX=  0.800000  0.720000  1.000000  0.810000 ScalE2=  1.000000  1.000000
 IRadAn=      0 IRanWt=     -1 IRanGd=            0 ICorTp=0 IEmpDi=131
 NAtoms=    6 NActive=    6 NUniq=    6 SFac= 1.00D+00 NAtFMM=   60 NAOKFM=F Big=F
 Integral buffers will be    131072 words long.
 Raffenetti 2 integral format.
 Two-electron integral symmetry is turned on.
 R6Disp:  Grimme-D3 Dispersion energy=       -0.0026169478 Hartrees.
 Nuclear repulsion after empirical dispersion term =      194.2137344028 Hartrees.
 Leave Link  301 at Sun Mar 24 12:58:40 2019, MaxMem=  1048576000 cpu:         1.8
 (Enter /mnt/e/g09/l302.exe)
 NPDir=0 NMtPBC=     1 NCelOv=     1 NCel=       1 NClECP=     1 NCelD=      1
         NCelK=      1 NCelE2=     1 NClLst=     1 CellRange=     0.0.
 One-electron integrals computed using PRISM.
 NBasis=    70 RedAO= T EigKep=  7.56D-04  NBF=    70
 NBsUse=    70 1.00D-06 EigRej= -1.00D+00 NBFU=    70
 Precomputing XC quadrature grid using
 IXCGrd= 4 IRadAn=           0 IRanWt=          -1 IRanGd=           0 AccXCQ= 0.00D+00.
 Generated NRdTot=       0 NPtTot=           0 NUsed=           0 NTot=          32
 NSgBfM=    70    70    70    70    70 MxSgAt=     6 MxSgA2=     6.
 Leave Link  302 at Sun Mar 24 12:58:41 2019, MaxMem=  1048576000 cpu:         2.6
 (Enter /mnt/e/g09/l303.exe)
 DipDrv:  MaxL=1.
 Leave Link  303 at Sun Mar 24 12:58:41 2019, MaxMem=  1048576000 cpu:         0.6
 (Enter /mnt/e/g09/l401.exe)
 ExpMin= 1.43D-01 ExpMax= 5.74D+05 ExpMxC= 5.74D+03 IAcc=2 IRadAn=         4 AccDes= 0.00D+00
 Harris functional with IExCor=  402 and IRadAn=       4 diagonalized for initial guess.
 HarFok:  IExCor=  402 AccDes= 0.00D+00 IRadAn=         4 IDoV= 1 UseB2=F ITyADJ=14
 ICtDFT=  3500011 ScaDFX=  1.000000  1.000000  1.000000  1.000000
 FoFCou: FMM=F IPFlag=           0 FMFlag=      100000 FMFlg1=           0
         NFxFlg=           0 DoJE=T BraDBF=F KetDBF=T FulRan=T
         wScrn=  0.000000 ICntrl=     500 IOpCl=  0 I1Cent=   200000004 NGrid=           0
         NMat0=    1 NMatS0=      1 NMatT0=    0 NMatD0=    1 NMtDS0=    0 NMtDT0=    0
 Petite list used in FoFCou.
 Harris En= -3072.04658740517    
 JPrj=0 DoOrth=F DoCkMO=F.
 Leave Link  401 at Sun Mar 24 12:58:42 2019, MaxMem=  1048576000 cpu:         3.4
 (Enter /mnt/e/g09/l502.exe)
 Closed shell SCF:
 Using DIIS extrapolation, IDIIS=  1040.
 Integral symmetry usage will be decided dynamically.
 Keep R1 ints in memory in canonical form, NReq=4127845.
 IVT=       34339 IEndB=       34339 NGot=  1048576000 MDV=  1045452807
 LenX=  1045452807 LenY=  1045447466
 Requested convergence on RMS density matrix=1.00D-08 within 128 cycles.
 Requested convergence on MAX density matrix=1.00D-06.
 Requested convergence on             energy=1.00D-06.
 No special actions if energy rises.
 FoFCou: FMM=F IPFlag=           0 FMFlag=           0 FMFlg1=           0
         NFxFlg=           0 DoJE=F BraDBF=F KetDBF=F FulRan=T
         wScrn=  0.000000 ICntrl=     600 IOpCl=  0 I1Cent=           0 NGrid=           0
         NMat0=    1 NMatS0=   2485 NMatT0=    0 NMatD0=    1 NMtDS0=    0 NMtDT0=    0
 Symmetry not used in FoFCou.
 Integral accuracy reduced to 1.0D-05 until final iterations.

 Cycle   1  Pass 0  IDiag  1:
 E= -3071.73000663641    
 DIIS: error= 1.82D-01 at cycle   1 NSaved=   1.
 NSaved= 1 IEnMin= 1 EnMin= -3071.73000663641     IErMin= 1 ErrMin= 1.82D-01
 ErrMax= 1.82D-01  0.00D+00 EMaxC= 1.00D-01 BMatC= 4.22D-01 BMatP= 4.22D-01
 IDIUse=3 WtCom= 0.00D+00 WtEn= 1.00D+00
 Coeff-Com:  0.100D+01
 Coeff-En:   0.100D+01
 Coeff:      0.100D+01
 Gap=     0.390 Goal=   None    Shift=    0.000
 GapD=    0.390 DampG=1.000 DampE=0.250 DampFc=0.2500 IDamp=-1.
 Damping current iteration by 2.50D-01
 RMSDP=1.21D-02 MaxDP=1.81D-01              OVMax= 2.81D-01

 Cycle   2  Pass 0  IDiag  1:
 E= -3071.76787178154     Delta-E=       -0.037865145126 Rises=F Damp=T
 DIIS: error= 1.35D-01 at cycle   2 NSaved=   2.
 NSaved= 2 IEnMin= 2 EnMin= -3071.76787178154     IErMin= 2 ErrMin= 1.35D-01
 ErrMax= 1.35D-01  0.00D+00 EMaxC= 1.00D-01 BMatC= 2.08D-01 BMatP= 4.22D-01
 IDIUse=3 WtCom= 0.00D+00 WtEn= 1.00D+00
 Coeff-Com: -0.182D+01 0.282D+01
 Coeff-En:   0.000D+00 0.100D+01
 Coeff:      0.000D+00 0.100D+01
 Gap=     0.272 Goal=   None    Shift=    0.000
 RMSDP=7.43D-03 MaxDP=1.29D-01 DE=-3.79D-02 OVMax= 7.39D-02

 Cycle   3  Pass 0  IDiag  1:
 E= -3071.81118961220     Delta-E=       -0.043317830663 Rises=F Damp=F
 DIIS: error= 2.03D-02 at cycle   3 NSaved=   3.
 NSaved= 3 IEnMin= 3 EnMin= -3071.81118961220     IErMin= 3 ErrMin= 2.03D-02
 ErrMax= 2.03D-02  0.00D+00 EMaxC= 1.00D-01 BMatC= 2.15D-02 BMatP= 2.08D-01
 IDIUse=3 WtCom= 7.97D-01 WtEn= 2.03D-01
 EnCoef did   100 forward-backward iterations
 Coeff-Com:  0.189D+01-0.248D+01 0.159D+01
 Coeff-En:   0.125D+00 0.151D-02 0.874D+00
 Coeff:      0.153D+01-0.198D+01 0.145D+01
 Gap=     0.250 Goal=   None    Shift=    0.000
 RMSDP=3.20D-03 MaxDP=4.45D-02 DE=-4.33D-02 OVMax= 6.19D-02

 Cycle   4  Pass 0  IDiag  1:
 E= -3071.83231888778     Delta-E=       -0.021129275579 Rises=F Damp=F
 DIIS: error= 5.24D-03 at cycle   4 NSaved=   4.
 NSaved= 4 IEnMin= 4 EnMin= -3071.83231888778     IErMin= 4 ErrMin= 5.24D-03
 ErrMax= 5.24D-03  0.00D+00 EMaxC= 1.00D-01 BMatC= 2.18D-03 BMatP= 2.15D-02
 IDIUse=3 WtCom= 9.48D-01 WtEn= 5.24D-02
 Coeff-Com:  0.165D+00-0.205D+00 0.349D+00 0.692D+00
 Coeff-En:   0.000D+00 0.000D+00 0.258D-01 0.974D+00
 Coeff:      0.156D+00-0.194D+00 0.332D+00 0.707D+00
 Gap=     0.248 Goal=   None    Shift=    0.000
 RMSDP=1.22D-03 MaxDP=2.16D-02 DE=-2.11D-02 OVMax= 3.26D-02

 Cycle   5  Pass 0  IDiag  1:
 E= -3071.83453189660     Delta-E=       -0.002213008821 Rises=F Damp=F
 DIIS: error= 1.37D-03 at cycle   5 NSaved=   5.
 NSaved= 5 IEnMin= 5 EnMin= -3071.83453189660     IErMin= 5 ErrMin= 1.37D-03
 ErrMax= 1.37D-03  0.00D+00 EMaxC= 1.00D-01 BMatC= 2.59D-04 BMatP= 2.18D-03
 IDIUse=3 WtCom= 9.86D-01 WtEn= 1.37D-02
 Coeff-Com: -0.543D-01 0.760D-01 0.768D-01 0.403D+00 0.499D+00
 Coeff-En:   0.000D+00 0.000D+00 0.000D+00 0.000D+00 0.100D+01
 Coeff:     -0.535D-01 0.750D-01 0.757D-01 0.397D+00 0.506D+00
 Gap=     0.247 Goal=   None    Shift=    0.000
 RMSDP=3.89D-04 MaxDP=7.61D-03 DE=-2.21D-03 OVMax= 1.10D-02

 Cycle   6  Pass 0  IDiag  1:
 E= -3071.83486475775     Delta-E=       -0.000332861143 Rises=F Damp=F
 DIIS: error= 1.35D-04 at cycle   6 NSaved=   6.
 NSaved= 6 IEnMin= 6 EnMin= -3071.83486475775     IErMin= 6 ErrMin= 1.35D-04
 ErrMax= 1.35D-04  0.00D+00 EMaxC= 1.00D-01 BMatC= 1.77D-06 BMatP= 2.59D-04
 IDIUse=3 WtCom= 9.99D-01 WtEn= 1.35D-03
 Coeff-Com: -0.335D-01 0.453D-01 0.105D-01 0.126D+00 0.173D+00 0.679D+00
 Coeff-En:   0.000D+00 0.000D+00 0.000D+00 0.000D+00 0.000D+00 0.100D+01
 Coeff:     -0.334D-01 0.453D-01 0.105D-01 0.126D+00 0.172D+00 0.679D+00
 Gap=     0.247 Goal=   None    Shift=    0.000
 RMSDP=3.14D-05 MaxDP=7.55D-04 DE=-3.33D-04 OVMax= 5.03D-04

 Cycle   7  Pass 0  IDiag  1:
 E= -3071.83486647799     Delta-E=       -0.000001720241 Rises=F Damp=F
 DIIS: error= 3.04D-05 at cycle   7 NSaved=   7.
 NSaved= 7 IEnMin= 7 EnMin= -3071.83486647799     IErMin= 7 ErrMin= 3.04D-05
 ErrMax= 3.04D-05  0.00D+00 EMaxC= 1.00D-01 BMatC= 1.66D-07 BMatP= 1.77D-06
 IDIUse=1 WtCom= 1.00D+00 WtEn= 0.00D+00
 Coeff-Com: -0.370D-02 0.494D-02-0.265D-03 0.152D-01 0.148D-01 0.180D+00
 Coeff-Com:  0.789D+00
 Coeff:     -0.370D-02 0.494D-02-0.265D-03 0.152D-01 0.148D-01 0.180D+00
 Coeff:      0.789D+00
 Gap=     0.247 Goal=   None    Shift=    0.000
 RMSDP=7.45D-06 MaxDP=1.48D-04 DE=-1.72D-06 OVMax= 1.64D-04

 Initial convergence to 1.0D-05 achieved.  Increase integral accuracy.
 Cycle   8  Pass 1  IDiag  1:
 E= -3071.83587003999     Delta-E=       -0.001003562003 Rises=F Damp=F
 DIIS: error= 1.20D-04 at cycle   1 NSaved=   1.
 NSaved= 1 IEnMin= 1 EnMin= -3071.83587003999     IErMin= 1 ErrMin= 1.20D-04
 ErrMax= 1.20D-04  0.00D+00 EMaxC= 1.00D-01 BMatC= 2.17D-07 BMatP= 2.17D-07
 IDIUse=3 WtCom= 9.99D-01 WtEn= 1.20D-03
 Coeff-Com:  0.100D+01
 Coeff-En:   0.100D+01
 Coeff:      0.100D+01
 Gap=     0.247 Goal=   None    Shift=    0.000
 RMSDP=7.45D-06 MaxDP=1.48D-04 DE=-1.00D-03 OVMax= 6.09D-05

 Cycle   9  Pass 1  IDiag  1:
 E= -3071.83587011514     Delta-E=       -0.000000075151 Rises=F Damp=F
 DIIS: error= 7.69D-06 at cycle   2 NSaved=   2.
 NSaved= 2 IEnMin= 2 EnMin= -3071.83587011514     IErMin= 2 ErrMin= 7.69D-06
 ErrMax= 7.69D-06  0.00D+00 EMaxC= 1.00D-01 BMatC= 7.24D-09 BMatP= 2.17D-07
 IDIUse=1 WtCom= 1.00D+00 WtEn= 0.00D+00
 Coeff-Com:  0.533D-01 0.947D+00
 Coeff:      0.533D-01 0.947D+00
 Gap=     0.247 Goal=   None    Shift=    0.000
 RMSDP=3.18D-06 MaxDP=4.66D-05 DE=-7.52D-08 OVMax= 8.57D-05

 Cycle  10  Pass 1  IDiag  1:
 E= -3071.83587011254     Delta-E=        0.000000002598 Rises=F Damp=F
 DIIS: error= 1.09D-05 at cycle   3 NSaved=   3.
 NSaved= 3 IEnMin= 2 EnMin= -3071.83587011514     IErMin= 2 ErrMin= 7.69D-06
 ErrMax= 1.09D-05  0.00D+00 EMaxC= 1.00D-01 BMatC= 1.01D-08 BMatP= 7.24D-09
 IDIUse=1 WtCom= 1.00D+00 WtEn= 0.00D+00
 Coeff-Com:  0.696D-03 0.542D+00 0.457D+00
 Coeff:      0.696D-03 0.542D+00 0.457D+00
 Gap=     0.247 Goal=   None    Shift=    0.000
 RMSDP=1.55D-06 MaxDP=2.56D-05 DE= 2.60D-09 OVMax= 5.07D-05

 Cycle  11  Pass 1  IDiag  1:
 E= -3071.83587012381     Delta-E=       -0.000000011271 Rises=F Damp=F
 DIIS: error= 1.17D-06 at cycle   4 NSaved=   4.
 NSaved= 4 IEnMin= 4 EnMin= -3071.83587012381     IErMin= 4 ErrMin= 1.17D-06
 ErrMax= 1.17D-06  0.00D+00 EMaxC= 1.00D-01 BMatC= 1.44D-10 BMatP= 7.24D-09
 IDIUse=1 WtCom= 1.00D+00 WtEn= 0.00D+00
 Coeff-Com: -0.134D-02 0.217D+00 0.207D+00 0.577D+00
 Coeff:     -0.134D-02 0.217D+00 0.207D+00 0.577D+00
 Gap=     0.247 Goal=   None    Shift=    0.000
 RMSDP=1.95D-07 MaxDP=2.26D-06 DE=-1.13D-08 OVMax= 4.53D-06

 Cycle  12  Pass 1  IDiag  1:
 E= -3071.83587012400     Delta-E=       -0.000000000186 Rises=F Damp=F
 DIIS: error= 1.19D-07 at cycle   5 NSaved=   5.
 NSaved= 5 IEnMin= 5 EnMin= -3071.83587012400     IErMin= 5 ErrMin= 1.19D-07
 ErrMax= 1.19D-07  0.00D+00 EMaxC= 1.00D-01 BMatC= 1.67D-12 BMatP= 1.44D-10
 IDIUse=1 WtCom= 1.00D+00 WtEn= 0.00D+00
 Coeff-Com: -0.299D-03 0.137D-01 0.144D-01 0.108D+00 0.864D+00
 Coeff:     -0.299D-03 0.137D-01 0.144D-01 0.108D+00 0.864D+00
 Gap=     0.247 Goal=   None    Shift=    0.000
 RMSDP=4.62D-08 MaxDP=6.75D-07 DE=-1.86D-10 OVMax= 8.76D-07

 Cycle  13  Pass 1  IDiag  1:
 E= -3071.83587012399     Delta-E=        0.000000000011 Rises=F Damp=F
 DIIS: error= 5.94D-08 at cycle   6 NSaved=   6.
 NSaved= 6 IEnMin= 5 EnMin= -3071.83587012400     IErMin= 6 ErrMin= 5.94D-08
 ErrMax= 5.94D-08  0.00D+00 EMaxC= 1.00D-01 BMatC= 5.21D-13 BMatP= 1.67D-12
 IDIUse=1 WtCom= 1.00D+00 WtEn= 0.00D+00
 Coeff-Com: -0.956D-04-0.340D-02-0.268D-02 0.277D-01 0.437D+00 0.542D+00
 Coeff:     -0.956D-04-0.340D-02-0.268D-02 0.277D-01 0.437D+00 0.542D+00
 Gap=     0.247 Goal=   None    Shift=    0.000
 RMSDP=1.91D-08 MaxDP=3.60D-07 DE= 1.09D-11 OVMax= 5.33D-07

 Cycle  14  Pass 1  IDiag  1:
 E= -3071.83587012400     Delta-E=       -0.000000000018 Rises=F Damp=F
 DIIS: error= 1.08D-08 at cycle   7 NSaved=   7.
 NSaved= 7 IEnMin= 7 EnMin= -3071.83587012400     IErMin= 7 ErrMin= 1.08D-08
 ErrMax= 1.08D-08  0.00D+00 EMaxC= 1.00D-01 BMatC= 2.12D-14 BMatP= 5.21D-13
 IDIUse=1 WtCom= 1.00D+00 WtEn= 0.00D+00
 Coeff-Com: -0.211D-04-0.263D-02-0.237D-02 0.580D-02 0.146D+00 0.246D+00
 Coeff-Com:  0.607D+00
 Coeff:     -0.211D-04-0.263D-02-0.237D-02 0.580D-02 0.146D+00 0.246D+00
 Coeff:      0.607D+00
 Gap=     0.247 Goal=   None    Shift=    0.000
 RMSDP=3.48D-09 MaxDP=6.01D-08 DE=-1.82D-11 OVMax= 9.40D-08

 SCF Done:  E(RB3LYP) =  -3071.83587012     A.U. after   14 cycles
            NFock= 14  Conv=0.35D-08     -V/T= 2.0055
 KE= 3.055107560196D+03 PE=-7.723484446141D+03 EE= 1.402327281419D+03
 Leave Link  502 at Sun Mar 24 12:58:44 2019, MaxMem=  1048576000 cpu:         8.3
 (Enter /mnt/e/g09/l801.exe)
 DoSCS=F DFT=T ScalE2(SS,OS)=  1.000000  1.000000
 Range of M.O.s used for correlation:     1    70
 NBasis=    70 NAE=    31 NBE=    31 NFC=     0 NFV=     0
 NROrb=     70 NOA=    31 NOB=    31 NVA=    39 NVB=    39

 **** Warning!!: The largest alpha MO coefficient is  0.19658734D+02

 Leave Link  801 at Sun Mar 24 12:58:44 2019, MaxMem=  1048576000 cpu:         0.1
 (Enter /mnt/e/g09/l1101.exe)
 Using compressed storage, NAtomX=     6.
 Will process      7 centers per pass.
 R6Disp: Adding Grimme-D3 dispersion energy 1st derivatives to the gradient.
 Leave Link 1101 at Sun Mar 24 12:58:44 2019, MaxMem=  1048576000 cpu:         0.9
 (Enter /mnt/e/g09/l1102.exe)
 Symmetrizing basis deriv contribution to polar:
 IMax=3 JMax=2 DiffMx= 0.00D+00
 Leave Link 1102 at Sun Mar 24 12:58:45 2019, MaxMem=  1048576000 cpu:         0.1
 (Enter /mnt/e/g09/l1110.exe)
 Forming Gx(P) for the SCF density, NAtomX=     6.
 Integral derivatives from FoFJK, PRISM(SPDF).
 Do as many integral derivatives as possible in FoFJK.
 G2DrvN: MDV=    1048575848.
 G2DrvN: will do     7 centers at a time, making    1 passes.
 Calling FoFCou, ICntrl=  3107 FMM=F I1Cent=   0 AccDes= 0.00D+00.
 FoFJK:  IHMeth= 1 ICntrl=    3107 DoSepK=F KAlg= 0 I1Cent=   0 FoldK=F
 IRaf=         0 NMat=   1 IRICut=       1 DoRegI=T DoRafI=F ISym2E= 0.
 FoFCou: FMM=F IPFlag=           0 FMFlag=      100000 FMFlg1=           0
         NFxFlg=           0 DoJE=F BraDBF=F KetDBF=F FulRan=T
         wScrn=  0.000000 ICntrl=    3107 IOpCl=  0 I1Cent=           0 NGrid=           0
         NMat0=    1 NMatS0=      1 NMatT0=    0 NMatD0=    1 NMtDS0=    0 NMtDT0=    0
 Symmetry not used in FoFCou.
 End of G2Drv F.D. properties file   721 does not exist.
 End of G2Drv F.D. properties file   722 does not exist.
 End of G2Drv F.D. properties file   788 does not exist.
 Leave Link 1110 at Sun Mar 24 12:58:47 2019, MaxMem=  1048576000 cpu:        11.1
 (Enter /mnt/e/g09/l1002.exe)
 Minotr:  Closed shell wavefunction.
          IDoAtm=111111
          Direct CPHF calculation.
          Differentiating once with respect to nuclear coordinates.
          Requested convergence is 1.0D-08 RMS, and 1.0D-07 maximum.
          Secondary convergence is 1.0D-12 RMS, and 1.0D-12 maximum.
          NewPWx=T KeepS1=F KeepF1=F KeepIn=T MapXYZ=F SortEE=F KeepMc=T.
          MDV=    1048575866 using IRadAn=       2.
 Generate precomputed XC quadrature information.
 Keep R1 ints in memory in canonical form, NReq=4112508.
 FoFCou: FMM=F IPFlag=           0 FMFlag=           0 FMFlg1=           0
         NFxFlg=           0 DoJE=F BraDBF=F KetDBF=F FulRan=T
         wScrn=  0.000000 ICntrl=     600 IOpCl=  0 I1Cent=           0 NGrid=           0
         NMat0=    1 NMatS0=   2485 NMatT0=    0 NMatD0=    1 NMtDS0=    0 NMtDT0=    0
 Symmetry not used in FoFCou.
          Solving linear equations simultaneously, MaxMat=       0.
          There are    21 degrees of freedom in the 1st order CPHF.  IDoFFX=6 NUNeed=     0.
     15 vectors produced by pass  0 Test12= 5.76D-15 4.76D-09 XBig12= 2.15D-01 3.69D-01.
 AX will form    15 AO Fock derivatives at one time.
     15 vectors produced by pass  1 Test12= 5.76D-15 4.76D-09 XBig12= 3.20D-02 7.54D-02.
     15 vectors produced by pass  2 Test12= 5.76D-15 4.76D-09 XBig12= 2.15D-03 1.38D-02.
     15 vectors produced by pass  3 Test12= 5.76D-15 4.76D-09 XBig12= 1.80D-05 1.34D-03.
     15 vectors produced by pass  4 Test12= 5.76D-15 4.76D-09 XBig12= 2.59D-08 3.37D-05.
     10 vectors produced by pass  5 Test12= 5.76D-15 4.76D-09 XBig12= 2.61D-11 1.20D-06.
      1 vectors produced by pass  6 Test12= 5.76D-15 4.76D-09 XBig12= 2.97D-14 4.81D-08.
 InvSVY:  IOpt=1 It=  1 EMax= 7.77D-16
 Solved reduced A of dimension    86 with    15 vectors.
 End of Minotr F.D. properties file   721 does not exist.
 End of Minotr F.D. properties file   722 does not exist.
 End of Minotr F.D. properties file   788 does not exist.
 Leave Link 1002 at Sun Mar 24 12:58:48 2019, MaxMem=  1048576000 cpu:         7.4
 (Enter /mnt/e/g09/l601.exe)
 Copying SCF densities to generalized density rwf, IOpCl= 0 IROHF=0.

 **********************************************************************

            Population analysis using the SCF density.

 **********************************************************************

 Orbital symmetries:
       Occupied  (A) (A) (A) (A) (A) (A) (A) (A) (A) (A) (A) (A)
                 (A) (A) (A) (A) (A) (A) (A) (A) (A) (A) (A) (A)
                 (A) (A) (A) (A) (A) (A) (A)
       Virtual   (A) (A) (A) (A) (A) (A) (A) (A) (A) (A) (A) (A)
                 (A) (A) (A) (A) (A) (A) (A) (A) (A) (A) (A) (A)
                 (A) (A) (A) (A) (A) (A) (A) (A) (A) (A) (A) (A)
                 (A) (A) (A)
 The electronic state is 1-A.
 Alpha  occ. eigenvalues -- -482.66637-101.28025 -61.62979 -56.14913 -56.14751
 Alpha  occ. eigenvalues --  -56.14750 -10.04237  -9.19661  -8.34186  -6.95655
 Alpha  occ. eigenvalues --   -6.95293  -6.95284  -6.29118  -6.28551  -6.28545
 Alpha  occ. eigenvalues --   -2.40775  -2.40619  -2.40612  -2.40161  -2.40161
 Alpha  occ. eigenvalues --   -0.60913  -0.54301  -0.47245  -0.31774  -0.27138
 Alpha  occ. eigenvalues --   -0.17085  -0.08365  -0.08259  -0.06883  -0.06750
 Alpha  occ. eigenvalues --   -0.04523
 Alpha virt. eigenvalues --    0.20145   0.27190   0.32487   0.36555   0.46409
 Alpha virt. eigenvalues --    0.58505   0.61416   0.62690   0.64684   0.65458
 Alpha virt. eigenvalues --    0.66087   0.68756   0.68838   0.70099   0.72065
 Alpha virt. eigenvalues --    0.73078   0.78124   0.82551   0.88901   0.98271
 Alpha virt. eigenvalues --    1.05175   1.11772   1.13698   1.14474   1.15501
 Alpha virt. eigenvalues --    1.18820   1.27529   1.33711   1.55537   1.74186
 Alpha virt. eigenvalues --    1.86205   1.92422   2.28781   2.45330   2.55249
 Alpha virt. eigenvalues --    4.36916   4.48843   8.82867  72.84557
          Condensed to atoms (all electrons):
               1          2          3          4          5          6
     1  C    5.132556   0.421046   0.398648   0.442480   0.004595   0.022158
     2  H    0.421046   0.507600  -0.030986  -0.013653  -0.052283  -0.047401
     3  H    0.398648  -0.030986   0.540794  -0.021087  -0.046586  -0.030952
     4  H    0.442480  -0.013653  -0.021087   0.470744  -0.054926  -0.065448
     5  Cl   0.004595  -0.052283  -0.046586  -0.054926  17.752264   0.022234
     6  Br   0.022158  -0.047401  -0.030952  -0.065448   0.022234  35.700364
 Mulliken charges:
               1
     1  C   -0.421483
     2  H    0.215677
     3  H    0.190169
     4  H    0.241890
     5  Cl  -0.625298
     6  Br  -0.600955
 Sum of Mulliken charges =  -1.00000
 Mulliken charges with hydrogens summed into heavy atoms:
               1
     1  C    0.226252
     5  Cl  -0.625298
     6  Br  -0.600955
 APT charges:
               1
     1  C   -0.928845
     2  H    0.451831
     3  H    0.462821
     4  H    0.401226
     5  Cl  -0.791825
     6  Br  -0.595208
 Sum of APT charges =  -1.00000
 APT charges with hydrogens summed into heavy atoms:
               1
     1  C    0.387034
     5  Cl  -0.791825
     6  Br  -0.595208
 Electronic spatial extent (au):  <R**2>=            901.6305
 Charge=             -1.0000 electrons
 Dipole moment (field-independent basis, Debye):
    X=             -3.5414    Y=              0.4895    Z=              0.0229  Tot=              3.5751
 Quadrupole moment (field-independent basis, Debye-Ang):
   XX=            -75.0547   YY=            -41.0333   ZZ=            -41.0909
   XY=              0.9847   XZ=              0.0247   YZ=              0.1585
 Traceless Quadrupole moment (field-independent basis, Debye-Ang):
   XX=            -22.6617   YY=             11.3597   ZZ=             11.3020
   XY=              0.9847   XZ=              0.0247   YZ=              0.1585
 Octapole moment (field-independent basis, Debye-Ang**2):
  XXX=           -108.1124  YYY=             -0.0201  ZZZ=              0.7495  XYY=            -13.7575
  XXY=              1.0364  XXZ=              0.0124  XZZ=            -13.7888  YZZ=              0.2161
  YYZ=             -0.6052  XYZ=             -0.0036
 Hexadecapole moment (field-independent basis, Debye-Ang**3):
 XXXX=          -1230.0809 YYYY=            -54.9684 ZZZZ=            -53.0973 XXXY=              5.8497
 XXXZ=              0.0915 YYYX=              2.1242 YYYZ=             -0.1821 ZZZX=              0.5419
 ZZZY=              0.5296 XXYY=           -181.7146 XXZZ=           -181.7581 YYZZ=            -17.9000
 XXYZ=             -0.0393 YYXZ=             -0.4866 ZZXY=              0.8607
 N-N= 1.942137344028D+02 E-N=-7.723484444776D+03  KE= 3.055107560196D+03
  Exact polarizability:   0.000   0.000   0.000   0.000   0.000   0.000
 Approx polarizability: 139.149   0.483  40.661  -0.285  -0.468  40.227
 No NMR shielding tensors so no spin-rotation constants.
 Leave Link  601 at Sun Mar 24 12:58:48 2019, MaxMem=  1048576000 cpu:         0.8
 (Enter /mnt/e/g09/l701.exe)
 Compute integral second derivatives.
 ... and contract with generalized density number  0.
 R6Disp: Adding Grimme-D3 dispersion energy 2nd derivatives to the Hessian.
 Leave Link  701 at Sun Mar 24 12:58:49 2019, MaxMem=  1048576000 cpu:         1.1
 (Enter /mnt/e/g09/l702.exe)
 L702 exits ... SP integral derivatives will be done elsewhere.
 Leave Link  702 at Sun Mar 24 12:58:49 2019, MaxMem=  1048576000 cpu:         0.0
 (Enter /mnt/e/g09/l703.exe)
 Compute integral second derivatives, UseDBF=F ICtDFT=           0.
 Integral derivatives from FoFJK, PRISM(SPDF).
 Calling FoFJK, ICntrl=    100147 FMM=F ISym2X=0 I1Cent= 0 IOpClX= 0 NMat=1 NMatS=1 NMatT=0.
 FoFJK:  IHMeth= 1 ICntrl=  100147 DoSepK=F KAlg= 0 I1Cent=   0 FoldK=F
 IRaf=         0 NMat=   1 IRICut=       1 DoRegI=T DoRafI=F ISym2E= 0.
 FoFCou: FMM=F IPFlag=           0 FMFlag=      100000 FMFlg1=         800
         NFxFlg=           0 DoJE=F BraDBF=F KetDBF=F FulRan=T
         wScrn=  0.000000 ICntrl=  100147 IOpCl=  0 I1Cent=           0 NGrid=           0
         NMat0=    1 NMatS0=      1 NMatT0=    0 NMatD0=    1 NMtDS0=    0 NMtDT0=    0
 Symmetry not used in FoFCou.
 Leave Link  703 at Sun Mar 24 12:58:52 2019, MaxMem=  1048576000 cpu:        15.7
 (Enter /mnt/e/g09/l716.exe)
 Dipole        =-1.39327786D+00 1.92584884D-01 9.00829670D-03
 Polarizability= 0.00000000D+00 0.00000000D+00 0.00000000D+00
                 0.00000000D+00 0.00000000D+00 0.00000000D+00
 ***** Axes restored to original set *****
 -------------------------------------------------------------------
 Center     Atomic                   Forces (Hartrees/Bohr)
 Number     Number              X              Y              Z
 -------------------------------------------------------------------
      1        6           0.138131181    0.010365996    0.064790626
      2        1           0.016529047   -0.040615523   -0.016703121
      3        1          -0.010329709   -0.003538035    0.007097043
      4        1          -0.141714799    0.038697859   -0.061560556
      5       17           0.017580033    0.023153200   -0.038455533
      6       35          -0.020195753   -0.028063497    0.044831542
 -------------------------------------------------------------------
 Cartesian Forces:  Max     0.141714799 RMS     0.056103316
 Force constants in Cartesian coordinates: 
                1             2             3             4             5 
      1  0.108032D+01
      2 -0.350582D+00  0.521917D+00
      3  0.342059D+00  0.246496D+00  0.163673D+00
      4 -0.176182D+00  0.222487D+00  0.533812D-01  0.173661D+00
      5  0.223539D+00 -0.334437D+00 -0.124607D+00 -0.212818D+00  0.353006D+00
      6  0.492790D-01 -0.128144D+00 -0.367238D-01 -0.749589D-01  0.106870D+00
      7 -0.133670D+00 -0.871943D-01 -0.990376D-01  0.105197D-01  0.996594D-02
      8 -0.870401D-01 -0.175015D+00 -0.128152D+00 -0.146219D-01 -0.124020D-01
      9 -0.100347D+00 -0.124660D+00 -0.124087D+00 -0.495672D-02 -0.453337D-02
     10 -0.758007D+00  0.197668D+00 -0.272085D+00 -0.167789D-02 -0.411797D-02
     11  0.198825D+00 -0.396173D-02  0.274865D-01  0.171820D-01  0.108634D-02
     12 -0.273321D+00  0.242910D-01 -0.956211D-02  0.116678D-01  0.189352D-04
     13 -0.677371D-02  0.928068D-02 -0.125334D-01  0.267490D-03 -0.308023D-02
     14  0.881610D-02 -0.200507D-02 -0.132477D-01 -0.101472D-01 -0.816434D-02
     15 -0.120412D-01 -0.135994D-01  0.922130D-02  0.675940D-02  0.891241D-02
     16 -0.568503D-02  0.833936D-02 -0.117843D-01 -0.658863D-02 -0.134886D-01
     17  0.644178D-02 -0.649885D-02 -0.797606D-02 -0.208207D-02  0.910267D-03
     18 -0.562944D-02 -0.438395D-02 -0.252161D-02  0.810726D-02  0.133385D-01
                6             7             8             9            10 
      6  0.644457D-01
      7  0.102650D-01  0.130045D+00
      8 -0.151179D-01  0.102665D+00  0.183592D+00
      9 -0.289315D-02  0.899616D-01  0.118814D+00  0.153174D+00
     10 -0.276389D-02 -0.369062D-02  0.397601D-02  0.392649D-03  0.765619D+00
     11  0.123913D-01 -0.209154D-01  0.830711D-02 -0.672335D-02 -0.177606D+00
     12  0.569416D-02 -0.142494D-01  0.663056D-02 -0.368647D-02  0.246532D+00
     13  0.332394D-02  0.578742D-03 -0.950792D-03  0.379077D-02 -0.135768D-02
     14  0.213175D-01 -0.643492D-03  0.133933D-03  0.442196D-02 -0.313176D-02
     15 -0.152413D-01  0.107304D-01  0.149457D-01 -0.213079D-01  0.496897D-02
     16  0.148549D-01 -0.378187D-02 -0.402825D-02  0.111589D-01 -0.885703D-03
     17  0.268256D-02 -0.387778D-02 -0.461588D-02  0.126804D-01 -0.167891D-01
     18 -0.152817D-01  0.232993D-02  0.287950D-02 -0.120010D-02  0.229559D-01
               11            12            13            14            15 
     11  0.132835D-01
     12 -0.653787D-01  0.537713D-01
     13 -0.122984D-01  0.212148D-01  0.130775D-01
     14 -0.553321D-02  0.108640D-01  0.164814D-01  0.233495D-01
     15  0.103291D-01 -0.173979D-01 -0.282722D-01 -0.382595D-01  0.649878D-01
     16 -0.518734D-02  0.815565D-02 -0.579237D-02 -0.113751D-01  0.178545D-01
     17 -0.131820D-01  0.235742D-01 -0.943272D-02 -0.778078D-02  0.176717D-01
     18  0.218952D-01 -0.288191D-01  0.124760D-01  0.149036D-01 -0.202621D-01
               16            17            18 
     16  0.227336D-01
     17  0.257398D-01  0.311673D-01
     18 -0.402397D-01 -0.486328D-01  0.680846D-01
 FormGI is forming the generalized inverse of G from B-inverse, IUseBI=4.
 Force constants in internal coordinates: 
                1             2             3             4             5 
      1  0.530638D+00
      2  0.218434D-02  0.366724D+00
      3 -0.314188D-02 -0.132427D-02  0.883668D+00
      4 -0.207455D-02 -0.878137D-03 -0.543292D-02  0.100004D+00
      5 -0.185423D-02 -0.311105D-03 -0.758043D-02  0.412992D-01  0.122549D+00
      6  0.217306D-02  0.249225D-02 -0.235865D-02  0.114047D-02 -0.705024D-03
      7  0.653912D-03 -0.382275D-02  0.568538D-03  0.447565D-04  0.127004D-02
      8 -0.247458D-03  0.631005D-04  0.157789D-03  0.839284D-02 -0.665996D-02
      9 -0.366881D-03 -0.158227D-02  0.237935D-02 -0.780584D-02  0.432899D-02
     10 -0.281142D-02  0.132643D-02  0.190321D-02  0.622532D-03 -0.253720D-02
     11 -0.400895D-03 -0.422551D-02  0.492960D-02  0.978480D-02 -0.346124D-02
     12 -0.134739D-02 -0.231245D-02  0.685692D-02 -0.730561D-02 -0.870000D-02
     13  0.790338D-03  0.362594D-02 -0.305119D-02  0.587496D-02 -0.149611D-01
     14  0.117274D-02  0.290673D-02 -0.930231D-02 -0.839417D-02  0.277138D-01
     15 -0.614339D-03 -0.151917D-02  0.253714D-02  0.586992D-03 -0.233097D-02
     16 -0.192873D-02 -0.749423D-02  0.136842D-01  0.275993D-02 -0.141894D-01
     17 -0.339339D-03 -0.624852D-04 -0.175978D-02 -0.297749D-01  0.324706D-01
     18 -0.221873D-02 -0.272118D-02  0.264071D-02 -0.177444D-04  0.437229D-04
     19  0.193838D-02  0.179153D-02 -0.712226D-03 -0.206341D-02 -0.976817D-03
     20  0.635347D-03 -0.391634D-02  0.645219D-03 -0.143222D-03  0.168029D-02
     21 -0.657026D-03  0.379218D-02 -0.749747D-03 -0.204286D-02  0.132902D-02
     22  0.150884D-02  0.131025D-02 -0.119840D-02 -0.135719D-02  0.266554D-03
     23  0.285408D-02 -0.119516D-02 -0.199549D-02 -0.125478D-03  0.163657D-02
     24 -0.259540D-02  0.200065D-02 -0.375214D-04  0.205525D-04  0.230584D-02
     25 -0.429537D-03 -0.481280D-03 -0.486172D-03  0.706224D-03  0.124337D-02
     26  0.216587D-02 -0.248193D-02 -0.448650D-03  0.685671D-03 -0.106247D-02
                6             7             8             9            10 
      6  0.679933D-02
      7 -0.310034D-02  0.540343D-02
      8  0.358245D-02 -0.215492D-02  0.351597D-01
      9 -0.432037D-02  0.251218D-02 -0.350401D-01  0.361493D-01
     10 -0.361460D-02 -0.235617D-02 -0.113596D-02  0.154678D-02  0.602167D-02
     11  0.107830D-02  0.318466D-03 -0.124363D-01  0.157030D-01 -0.103708D-02
     12 -0.206236D-02 -0.135548D-02  0.143685D-01 -0.116917D-01  0.321314D-02
     13 -0.308788D-02  0.957163D-03 -0.184975D-01  0.159267D-01  0.255680D-02
     14  0.385238D-02  0.317216D-03  0.168444D-01 -0.204821D-01 -0.476062D-02
     15 -0.737921D-03  0.357262D-03  0.119653D-03  0.110917D-02  0.410823D-03
     16 -0.749798D-03 -0.126981D-02  0.177464D-02  0.514384D-02  0.219989D-02
     17 -0.168720D-02  0.103867D-02 -0.495647D-02  0.449307D-02 -0.707182D-03
     18 -0.650461D-02  0.297185D-02 -0.173367D-02  0.265713D-02  0.348830D-02
     19  0.556800D-02 -0.276325D-02 -0.328821D-02  0.324756D-02 -0.281956D-02
     20 -0.304030D-02  0.539153D-02 -0.185280D-02  0.227469D-02 -0.241649D-02
     21  0.261128D-02 -0.501834D-02 -0.318760D-02  0.279005D-02  0.237388D-02
     22  0.283278D-02 -0.275036D-02 -0.213967D-02  0.180753D-02 -0.106660D-03
     23  0.346431D-02  0.241969D-02 -0.119138D-03 -0.382443D-03 -0.590478D-02
     24 -0.295672D-02 -0.225509D-02  0.100616D-03 -0.457511D-03  0.519344D-02
     25 -0.273522D-02  0.128914D-04  0.114854D-02 -0.144003D-02  0.271290D-02
     26  0.221501D-03  0.226798D-02  0.104793D-02 -0.982518D-03 -0.248054D-02
               11            12            13            14            15 
     11  0.450174D-01
     12 -0.284233D-01  0.428491D-01
     13 -0.227014D-01  0.851440D-02  0.419697D-01
     14  0.520035D-02 -0.234576D-01 -0.273919D-01  0.467874D-01
     15  0.326672D-02  0.267682D-02 -0.257078D-02 -0.363770D-02  0.122883D-02
     16  0.195163D-01  0.166761D-01 -0.162375D-01 -0.216507D-01  0.691848D-02
     17 -0.595662D-02  0.344019D-02 -0.687433D-02  0.956502D-02 -0.463406D-03
     18  0.433727D-03  0.157972D-02  0.554364D-03 -0.237608D-02  0.923463D-03
     19  0.727529D-03  0.163265D-02  0.239600D-02 -0.521120D-02 -0.406527D-04
     20  0.951236D-03 -0.163883D-02 -0.174086D-04  0.931279D-03  0.421882D-03
     21  0.292559D-02 -0.232593D-02  0.174753D-03 -0.104217D-02 -0.397547D-03
     22  0.120265D-02 -0.560975D-03  0.755472D-03 -0.152910D-02 -0.332139D-03
     23  0.517509D-03 -0.321855D-02 -0.571773D-03  0.330736D-02 -0.501581D-03
     24  0.219806D-02 -0.395859D-02 -0.222125D-02  0.416903D-02 -0.356895D-03
     25  0.475121D-03 -0.219363D-02 -0.164053D-02  0.368210D-02 -0.291486D-03
     26 -0.172294D-02  0.176496D-02  0.580720D-03 -0.486928D-03  0.654084D-04
               16            17            18            19            20 
     16  0.422756D-01
     17 -0.294351D-02  0.223711D-01
     18  0.192351D-02  0.101765D-02  0.642265D-02
     19  0.326476D-02 -0.321980D-05 -0.578175D-02  0.689475D-02
     20 -0.867881D-03  0.123626D-02  0.296717D-02 -0.280957D-02  0.540287D-02
     21  0.823567D-03  0.402562D-03 -0.269143D-02  0.307396D-02 -0.500986D-02
     22  0.915176D-03  0.263141D-03 -0.293051D-02  0.332574D-02 -0.276056D-02
     23 -0.279139D-02  0.218605D-03 -0.345548D-02  0.297218D-02  0.243570D-02
     24 -0.244119D-02  0.405782D-03  0.309032D-02 -0.382080D-02 -0.220029D-02
     25 -0.234958D-02  0.266361D-03  0.285124D-02 -0.356901D-02  0.490103D-04
     26  0.916098D-04 -0.139422D-03 -0.239081D-03  0.251789D-03  0.224930D-02
               21            22            23            24            25 
     21  0.556042D-02
     22  0.303607D-02  0.268783D-02
     23 -0.231843D-02  0.169950D-03  0.589118D-02
     24  0.248646D-02 -0.289675D-03 -0.529061D-02  0.630726D-02
     25 -0.378860D-04 -0.637914D-03 -0.280223D-02  0.353112D-02  0.293109D-02
     26 -0.252435D-02 -0.348239D-03  0.248838D-02 -0.277613D-02 -0.600028D-03
               26 
     26  0.217611D-02
 Leave Link  716 at Sun Mar 24 12:58:52 2019, MaxMem=  1048576000 cpu:         0.7
 (Enter /mnt/e/g09/l103.exe)

 GradGradGradGradGradGradGradGradGradGradGradGradGradGradGradGradGradGrad
 Berny optimization.
 Red2BG is reusing G-inverse.
 Internal  Forces:  Max     0.158264123 RMS     0.035948569
 Search for a saddle point.
 Step number   1 out of a maximum of   36
 All quantities printed in internal units (Hartrees-Bohrs-Radians)
 Swapping is turned off.
 Second derivative matrix not updated -- analytic derivatives used.
 ITU=  0
     Eigenvalues ---   -0.00584   0.00153   0.02554   0.03116   0.06863
     Eigenvalues ---    0.09384   0.10240   0.11451   0.16574   0.36728
     Eigenvalues ---    0.53077   0.88432
 Eigenvectors required to have negative eigenvalues:
                          D1        R4        R5        A9        A8
   1                    0.67144   0.42821  -0.39866   0.23486  -0.19095
                          A3        A4        A6        A7        D5
   1                   -0.18164   0.17266  -0.16108   0.11314   0.06207
 RFO step:  Lambda0=1.494431017D-03 Lambda=-6.16058989D-02.
 Linear search not attempted -- option 19 set.
 Maximum step size (   0.300) exceeded in Quadratic search.
    -- Step size scaled by   0.564
 Iteration  1 RMS(Cart)=  0.04650345 RMS(Int)=  0.00782949
 Iteration  2 RMS(Cart)=  0.00671062 RMS(Int)=  0.00159047
 Iteration  3 RMS(Cart)=  0.00000264 RMS(Int)=  0.00159046
 Iteration  4 RMS(Cart)=  0.00000001 RMS(Int)=  0.00159046
 ITry= 1 IFail=0 DXMaxC= 1.58D-01 DCOld= 1.00D+10 DXMaxT= 3.00D-01 DXLimC= 3.00D+00 Rises=F
 Variable       Old X    -DE/DX   Delta X   Delta X   Delta X     New X
                                 (Linear)    (Quad)   (Total)
    R1        1.92729   0.04570   0.00000   0.04427   0.04427   1.97156
    R2        2.04797  -0.00364   0.00000  -0.00616  -0.00616   2.04182
    R3        1.75625   0.15826   0.00000   0.09735   0.09735   1.85360
    R4        4.04464   0.04821   0.00000   0.02037   0.02037   4.06501
    R5        4.11960   0.05554   0.00000   0.23919   0.23919   4.35879
    A1        1.95981   0.00461   0.00000   0.02837   0.02284   1.98266
    A2        2.22209  -0.00269   0.00000  -0.01721  -0.02045   2.20164
    A3        1.54257   0.00155   0.00000   0.05096   0.05171   1.59428
    A4        1.62939  -0.00391   0.00000  -0.05879  -0.05917   1.57022
    A5        2.09879  -0.00203   0.00000  -0.00011  -0.00375   2.09504
    A6        1.51525   0.00675   0.00000   0.05744   0.05766   1.57291
    A7        1.78699  -0.01726   0.00000  -0.08573  -0.08617   1.70082
    A8        1.58418  -0.00848   0.00000   0.03874   0.03911   1.62329
    A9        1.38997   0.01929   0.00000  -0.00900  -0.00920   1.38077
   A10        3.17196  -0.00236   0.00000  -0.00783  -0.00746   3.16450
   A11        3.32911  -0.01214   0.00000  -0.03326  -0.03323   3.29588
    D1       -3.05980   0.00160   0.00000  -0.18281  -0.18217   3.04121
    D2       -1.96231  -0.00415   0.00000  -0.02172  -0.02052  -1.98283
    D3        1.98435   0.00097   0.00000   0.00003   0.00194   1.98630
    D4        2.22199  -0.00248   0.00000  -0.01844  -0.01761   2.20438
    D5       -2.22258   0.00328   0.00000   0.00605   0.00734  -2.21524
    D6       -1.72697   0.00149   0.00000   0.00699   0.00810  -1.71887
    D7       -2.09888   0.00166   0.00000   0.00328   0.00292  -2.09597
    D8        2.07625   0.00232   0.00000   0.00603   0.00540   2.08165
    D9        2.57186   0.00052   0.00000   0.00697   0.00616   2.57802
   D10        0.49561  -0.00180   0.00000   0.00094   0.00076   0.49637
         Item               Value     Threshold  Converged?
 Maximum Force            0.158264     0.000450     NO 
 RMS     Force            0.035949     0.000300     NO 
 Maximum Displacement     0.157639     0.001800     NO 
 RMS     Displacement     0.050787     0.001200     NO 
 Predicted change in Energy=-2.610848D-02
 Lowest energy point so far.  Saving SCF results.
 GradGradGradGradGradGradGradGradGradGradGradGradGradGradGradGradGradGrad

 Leave Link  103 at Sun Mar 24 12:58:52 2019, MaxMem=  1048576000 cpu:         0.0
 (Enter /mnt/e/g09/l202.exe)
                          Input orientation:                          
 ---------------------------------------------------------------------
 Center     Atomic      Atomic             Coordinates (Angstroms)
 Number     Number       Type             X           Y           Z
 ---------------------------------------------------------------------
      1          6           0        0.310878   -0.593530    0.230461
      2          1           0        0.851366   -1.454205   -0.005333
      3          1           0        0.835438    0.078271    0.894512
      4          1           0       -0.615038   -0.402135   -0.030645
      5         17           0        1.124248    0.444136   -1.469234
      6         35           0       -0.847967   -1.765037    1.844443
 ---------------------------------------------------------------------
                    Distance matrix (angstroms):
                    1          2          3          4          5
     1  C    0.000000
     2  H    1.043307   0.000000
     3  H    1.080483   1.777205   0.000000
     4  H    0.980882   1.804947   1.786221   0.000000
     5  Cl   2.151113   2.412710   2.409267   2.410566   0.000000
     6  Br   2.306575   2.531012   2.670956   2.329745   4.444157
                    6
     6  Br   0.000000
 Stoichiometry    CH3BrCl(1-)
 Framework group  C1[X(CH3BrCl)]
 Deg. of freedom    12
 Full point group                 C1      NOp   1
 RotChk:  IX=0 Diff= 1.41D-01
 Largest Abelian subgroup         C1      NOp   1
 Largest concise Abelian subgroup C1      NOp   1
                         Standard orientation:                         
 ---------------------------------------------------------------------
 Center     Atomic      Atomic             Coordinates (Angstroms)
 Number     Number       Type             X           Y           Z
 ---------------------------------------------------------------------
      1          6           0        0.724059    0.139113   -0.014690
      2          1           0        0.712865    0.399973    0.995417
      3          1           0        0.801372    0.987253   -0.679613
      4          1           0        0.597613   -0.761994   -0.380949
      5         17           0        2.867043   -0.046692    0.004874
      6         35           0       -1.577027   -0.019032    0.002012
 ---------------------------------------------------------------------
 Rotational constants (GHZ):    137.5659358      1.0277194      1.0267860
 Leave Link  202 at Sun Mar 24 12:58:52 2019, MaxMem=  1048576000 cpu:         0.0
 (Enter /mnt/e/g09/l301.exe)
 Standard basis: 6-31G(d) (6D, 7F)
 Ernie: Thresh=  0.10000D-02 Tol=  0.10000D-05 Strict=F.
 There are    70 symmetry adapted cartesian basis functions of A   symmetry.
 There are    70 symmetry adapted basis functions of A   symmetry.
    70 basis functions,   175 primitive gaussians,    70 cartesian basis functions
    31 alpha electrons       31 beta electrons
       nuclear repulsion energy       187.6210858185 Hartrees.
 IExCor=  402 DFT=T Ex+Corr=B3LYP ExCW=0 ScaHFX=  0.200000
 ScaDFX=  0.800000  0.720000  1.000000  0.810000 ScalE2=  1.000000  1.000000
 IRadAn=      0 IRanWt=     -1 IRanGd=            0 ICorTp=0 IEmpDi=131
 NAtoms=    6 NActive=    6 NUniq=    6 SFac= 1.00D+00 NAtFMM=   60 NAOKFM=F Big=F
 Integral buffers will be    131072 words long.
 Raffenetti 2 integral format.
 Two-electron integral symmetry is turned on.
 R6Disp:  Grimme-D3 Dispersion energy=       -0.0029137435 Hartrees.
 Nuclear repulsion after empirical dispersion term =      187.6181720750 Hartrees.
 Leave Link  301 at Sun Mar 24 12:58:52 2019, MaxMem=  1048576000 cpu:         0.1
 (Enter /mnt/e/g09/l302.exe)
 NPDir=0 NMtPBC=     1 NCelOv=     1 NCel=       1 NClECP=     1 NCelD=      1
         NCelK=      1 NCelE2=     1 NClLst=     1 CellRange=     0.0.
 One-electron integrals computed using PRISM.
 NBasis=    70 RedAO= T EigKep=  7.58D-04  NBF=    70
 NBsUse=    70 1.00D-06 EigRej= -1.00D+00 NBFU=    70
 Precomputing XC quadrature grid using
 IXCGrd= 4 IRadAn=           0 IRanWt=          -1 IRanGd=           0 AccXCQ= 0.00D+00.
 Generated NRdTot=       0 NPtTot=           0 NUsed=           0 NTot=          32
 NSgBfM=    70    70    70    70    70 MxSgAt=     6 MxSgA2=     6.
 Leave Link  302 at Sun Mar 24 12:58:52 2019, MaxMem=  1048576000 cpu:         0.5
 (Enter /mnt/e/g09/l303.exe)
 DipDrv:  MaxL=1.
 Leave Link  303 at Sun Mar 24 12:58:52 2019, MaxMem=  1048576000 cpu:         0.0
 (Enter /mnt/e/g09/l401.exe)
 Initial guess from the checkpoint file:  "/mnt/e/scratch/Gau-3442.chk"
 B after Tr=     0.000000    0.000000    0.000000
         Rot=    0.998746    0.050071    0.000004    0.000015 Ang=   5.74 deg.
 Guess basis will be translated and rotated to current coordinates.
 JPrj=2 DoOrth=T DoCkMO=T.
 Generating alternative initial guess.
 ExpMin= 1.43D-01 ExpMax= 5.74D+05 ExpMxC= 5.74D+03 IAcc=2 IRadAn=         4 AccDes= 0.00D+00
 Harris functional with IExCor=  402 and IRadAn=       4 diagonalized for initial guess.
 HarFok:  IExCor=  402 AccDes= 0.00D+00 IRadAn=         4 IDoV= 1 UseB2=F ITyADJ=14
 ICtDFT=  3500011 ScaDFX=  1.000000  1.000000  1.000000  1.000000
 FoFCou: FMM=F IPFlag=           0 FMFlag=      100000 FMFlg1=           0
         NFxFlg=           0 DoJE=T BraDBF=F KetDBF=T FulRan=T
         wScrn=  0.000000 ICntrl=     500 IOpCl=  0 I1Cent=   200000004 NGrid=           0
         NMat0=    1 NMatS0=      1 NMatT0=    0 NMatD0=    1 NMtDS0=    0 NMtDT0=    0
 Petite list used in FoFCou.
 Harris En= -3072.07031546862    
 Leave Link  401 at Sun Mar 24 12:58:52 2019, MaxMem=  1048576000 cpu:         0.8
 (Enter /mnt/e/g09/l502.exe)
 Closed shell SCF:
 Using DIIS extrapolation, IDIIS=  1040.
 Integral symmetry usage will be decided dynamically.
 Keep R1 ints in memory in canonical form, NReq=4127713.
 IVT=       34339 IEndB=       34339 NGot=  1048576000 MDV=  1045452807
 LenX=  1045452807 LenY=  1045447466
 Requested convergence on RMS density matrix=1.00D-08 within 128 cycles.
 Requested convergence on MAX density matrix=1.00D-06.
 Requested convergence on             energy=1.00D-06.
 No special actions if energy rises.
 FoFCou: FMM=F IPFlag=           0 FMFlag=           0 FMFlg1=           0
         NFxFlg=           0 DoJE=F BraDBF=F KetDBF=F FulRan=T
         wScrn=  0.000000 ICntrl=     600 IOpCl=  0 I1Cent=           0 NGrid=           0
         NMat0=    1 NMatS0=   2485 NMatT0=    0 NMatD0=    1 NMtDS0=    0 NMtDT0=    0
 Symmetry not used in FoFCou.
 Integral accuracy reduced to 1.0D-05 until final iterations.

 Cycle   1  Pass 0  IDiag  1:
 E= -3071.85851171802    
 DIIS: error= 8.92D-03 at cycle   1 NSaved=   1.
 NSaved= 1 IEnMin= 1 EnMin= -3071.85851171802     IErMin= 1 ErrMin= 8.92D-03
 ErrMax= 8.92D-03  0.00D+00 EMaxC= 1.00D-01 BMatC= 7.27D-03 BMatP= 7.27D-03
 IDIUse=3 WtCom= 9.11D-01 WtEn= 8.92D-02
 Coeff-Com:  0.100D+01
 Coeff-En:   0.100D+01
 Coeff:      0.100D+01
 Gap=     1.513 Goal=   None    Shift=    0.000
 GapD=    1.513 DampG=2.000 DampE=1.000 DampFc=2.0000 IDamp=-1.
 RMSDP=1.38D-03 MaxDP=2.01D-02              OVMax= 2.66D-02

 Cycle   2  Pass 0  IDiag  1:
 E= -3071.86094300889     Delta-E=       -0.002431290867 Rises=F Damp=F
 DIIS: error= 2.86D-03 at cycle   2 NSaved=   2.
 NSaved= 2 IEnMin= 2 EnMin= -3071.86094300889     IErMin= 2 ErrMin= 2.86D-03
 ErrMax= 2.86D-03  0.00D+00 EMaxC= 1.00D-01 BMatC= 5.82D-04 BMatP= 7.27D-03
 IDIUse=3 WtCom= 9.71D-01 WtEn= 2.86D-02
 Coeff-Com:  0.105D+00 0.895D+00
 Coeff-En:   0.000D+00 0.100D+01
 Coeff:      0.102D+00 0.898D+00
 Gap=     0.227 Goal=   None    Shift=    0.000
 RMSDP=8.97D-04 MaxDP=1.23D-02 DE=-2.43D-03 OVMax= 2.31D-02

 Cycle   3  Pass 0  IDiag  1:
 E= -3071.86056870476     Delta-E=        0.000374304124 Rises=F Damp=F
 DIIS: error= 3.75D-03 at cycle   3 NSaved=   3.
 NSaved= 3 IEnMin= 2 EnMin= -3071.86094300889     IErMin= 2 ErrMin= 2.86D-03
 ErrMax= 3.75D-03  0.00D+00 EMaxC= 1.00D-01 BMatC= 9.26D-04 BMatP= 5.82D-04
 IDIUse=3 WtCom= 1.40D-01 WtEn= 8.60D-01
 Coeff-Com: -0.175D-02 0.559D+00 0.443D+00
 Coeff-En:   0.000D+00 0.590D+00 0.410D+00
 Coeff:     -0.246D-03 0.586D+00 0.415D+00
 Gap=     0.233 Goal=   None    Shift=    0.000
 RMSDP=4.46D-04 MaxDP=6.49D-03 DE= 3.74D-04 OVMax= 1.30D-02

 Cycle   4  Pass 0  IDiag  1:
 E= -3071.86164248656     Delta-E=       -0.001073781800 Rises=F Damp=F
 DIIS: error= 2.59D-04 at cycle   4 NSaved=   4.
 NSaved= 4 IEnMin= 4 EnMin= -3071.86164248656     IErMin= 4 ErrMin= 2.59D-04
 ErrMax= 2.59D-04  0.00D+00 EMaxC= 1.00D-01 BMatC= 4.47D-06 BMatP= 5.82D-04
 IDIUse=3 WtCom= 9.97D-01 WtEn= 2.59D-03
 Coeff-Com: -0.156D-02 0.126D+00 0.477D-01 0.828D+00
 Coeff-En:   0.000D+00 0.000D+00 0.000D+00 0.100D+01
 Coeff:     -0.156D-02 0.125D+00 0.475D-01 0.829D+00
 Gap=     0.234 Goal=   None    Shift=    0.000
 RMSDP=5.01D-05 MaxDP=6.79D-04 DE=-1.07D-03 OVMax= 1.63D-03

 Cycle   5  Pass 0  IDiag  1:
 E= -3071.86164782510     Delta-E=       -0.000005338539 Rises=F Damp=F
 DIIS: error= 5.36D-05 at cycle   5 NSaved=   5.
 NSaved= 5 IEnMin= 5 EnMin= -3071.86164782510     IErMin= 5 ErrMin= 5.36D-05
 ErrMax= 5.36D-05  0.00D+00 EMaxC= 1.00D-01 BMatC= 3.27D-07 BMatP= 4.47D-06
 IDIUse=1 WtCom= 1.00D+00 WtEn= 0.00D+00
 Coeff-Com: -0.862D-03 0.401D-01 0.750D-02 0.396D+00 0.557D+00
 Coeff:     -0.862D-03 0.401D-01 0.750D-02 0.396D+00 0.557D+00
 Gap=     0.234 Goal=   None    Shift=    0.000
 RMSDP=1.61D-05 MaxDP=3.71D-04 DE=-5.34D-06 OVMax= 4.17D-04

 Cycle   6  Pass 0  IDiag  1:
 E= -3071.86164822260     Delta-E=       -0.000000397499 Rises=F Damp=F
 DIIS: error= 1.33D-05 at cycle   6 NSaved=   6.
 NSaved= 6 IEnMin= 6 EnMin= -3071.86164822260     IErMin= 6 ErrMin= 1.33D-05
 ErrMax= 1.33D-05  0.00D+00 EMaxC= 1.00D-01 BMatC= 2.62D-08 BMatP= 3.27D-07
 IDIUse=1 WtCom= 1.00D+00 WtEn= 0.00D+00
 Coeff-Com: -0.578D-04-0.442D-02-0.543D-02 0.452D-01 0.233D+00 0.732D+00
 Coeff:     -0.578D-04-0.442D-02-0.543D-02 0.452D-01 0.233D+00 0.732D+00
 Gap=     0.234 Goal=   None    Shift=    0.000
 RMSDP=4.05D-06 MaxDP=8.56D-05 DE=-3.97D-07 OVMax= 1.02D-04

 Initial convergence to 1.0D-05 achieved.  Increase integral accuracy.
 Cycle   7  Pass 1  IDiag  1:
 E= -3071.86270414632     Delta-E=       -0.001055923725 Rises=F Damp=F
 DIIS: error= 1.14D-04 at cycle   1 NSaved=   1.
 NSaved= 1 IEnMin= 1 EnMin= -3071.86270414632     IErMin= 1 ErrMin= 1.14D-04
 ErrMax= 1.14D-04  0.00D+00 EMaxC= 1.00D-01 BMatC= 2.40D-07 BMatP= 2.40D-07
 IDIUse=3 WtCom= 9.99D-01 WtEn= 1.14D-03
 Coeff-Com:  0.100D+01
 Coeff-En:   0.100D+01
 Coeff:      0.100D+01
 Gap=     0.234 Goal=   None    Shift=    0.000
 RMSDP=4.05D-06 MaxDP=8.56D-05 DE=-1.06D-03 OVMax= 6.74D-05

 Cycle   8  Pass 1  IDiag  1:
 E= -3071.86270424244     Delta-E=       -0.000000096119 Rises=F Damp=F
 DIIS: error= 7.63D-06 at cycle   2 NSaved=   2.
 NSaved= 2 IEnMin= 2 EnMin= -3071.86270424244     IErMin= 2 ErrMin= 7.63D-06
 ErrMax= 7.63D-06  0.00D+00 EMaxC= 1.00D-01 BMatC= 3.66D-09 BMatP= 2.40D-07
 IDIUse=1 WtCom= 1.00D+00 WtEn= 0.00D+00
 Coeff-Com:  0.254D-01 0.975D+00
 Coeff:      0.254D-01 0.975D+00
 Gap=     0.234 Goal=   None    Shift=    0.000
 RMSDP=2.57D-06 MaxDP=4.51D-05 DE=-9.61D-08 OVMax= 4.48D-05

 Cycle   9  Pass 1  IDiag  1:
 E= -3071.86270424368     Delta-E=       -0.000000001237 Rises=F Damp=F
 DIIS: error= 4.54D-06 at cycle   3 NSaved=   3.
 NSaved= 3 IEnMin= 3 EnMin= -3071.86270424368     IErMin= 3 ErrMin= 4.54D-06
 ErrMax= 4.54D-06  0.00D+00 EMaxC= 1.00D-01 BMatC= 2.80D-09 BMatP= 3.66D-09
 IDIUse=1 WtCom= 1.00D+00 WtEn= 0.00D+00
 Coeff-Com: -0.169D-02 0.465D+00 0.537D+00
 Coeff:     -0.169D-02 0.465D+00 0.537D+00
 Gap=     0.234 Goal=   None    Shift=    0.000
 RMSDP=1.21D-06 MaxDP=2.76D-05 DE=-1.24D-09 OVMax= 3.10D-05

 Cycle  10  Pass 1  IDiag  1:
 E= -3071.86270424719     Delta-E=       -0.000000003508 Rises=F Damp=F
 DIIS: error= 8.67D-07 at cycle   4 NSaved=   4.
 NSaved= 4 IEnMin= 4 EnMin= -3071.86270424719     IErMin= 4 ErrMin= 8.67D-07
 ErrMax= 8.67D-07  0.00D+00 EMaxC= 1.00D-01 BMatC= 1.25D-10 BMatP= 2.80D-09
 IDIUse=1 WtCom= 1.00D+00 WtEn= 0.00D+00
 Coeff-Com: -0.172D-02 0.204D+00 0.276D+00 0.522D+00
 Coeff:     -0.172D-02 0.204D+00 0.276D+00 0.522D+00
 Gap=     0.234 Goal=   None    Shift=    0.000
 RMSDP=2.61D-07 MaxDP=5.83D-06 DE=-3.51D-09 OVMax= 6.52D-06

 Cycle  11  Pass 1  IDiag  1:
 E= -3071.86270424734     Delta-E=       -0.000000000151 Rises=F Damp=F
 DIIS: error= 1.29D-07 at cycle   5 NSaved=   5.
 NSaved= 5 IEnMin= 5 EnMin= -3071.86270424734     IErMin= 5 ErrMin= 1.29D-07
 ErrMax= 1.29D-07  0.00D+00 EMaxC= 1.00D-01 BMatC= 2.33D-12 BMatP= 1.25D-10
 IDIUse=1 WtCom= 1.00D+00 WtEn= 0.00D+00
 Coeff-Com: -0.277D-03 0.862D-02 0.200D-01 0.133D+00 0.839D+00
 Coeff:     -0.277D-03 0.862D-02 0.200D-01 0.133D+00 0.839D+00
 Gap=     0.234 Goal=   None    Shift=    0.000
 RMSDP=3.65D-08 MaxDP=6.43D-07 DE=-1.51D-10 OVMax= 7.76D-07

 Cycle  12  Pass 1  IDiag  1:
 E= -3071.86270424734     Delta-E=        0.000000000001 Rises=F Damp=F
 DIIS: error= 7.06D-08 at cycle   6 NSaved=   6.
 NSaved= 6 IEnMin= 5 EnMin= -3071.86270424734     IErMin= 6 ErrMin= 7.06D-08
 ErrMax= 7.06D-08  0.00D+00 EMaxC= 1.00D-01 BMatC= 4.09D-13 BMatP= 2.33D-12
 IDIUse=1 WtCom= 1.00D+00 WtEn= 0.00D+00
 Coeff-Com: -0.658D-04-0.350D-02-0.500D-03 0.473D-01 0.420D+00 0.537D+00
 Coeff:     -0.658D-04-0.350D-02-0.500D-03 0.473D-01 0.420D+00 0.537D+00
 Gap=     0.234 Goal=   None    Shift=    0.000
 RMSDP=1.26D-08 MaxDP=1.76D-07 DE= 9.09D-13 OVMax= 3.27D-07

 Cycle  13  Pass 1  IDiag  1:
 E= -3071.86270424733     Delta-E=        0.000000000003 Rises=F Damp=F
 DIIS: error= 1.85D-08 at cycle   7 NSaved=   7.
 NSaved= 7 IEnMin= 5 EnMin= -3071.86270424734     IErMin= 7 ErrMin= 1.85D-08
 ErrMax= 1.85D-08  0.00D+00 EMaxC= 1.00D-01 BMatC= 3.14D-14 BMatP= 4.09D-13
 IDIUse=1 WtCom= 1.00D+00 WtEn= 0.00D+00
 Coeff-Com: -0.144D-04-0.270D-02-0.205D-02 0.147D-01 0.155D+00 0.282D+00
 Coeff-Com:  0.554D+00
 Coeff:     -0.144D-04-0.270D-02-0.205D-02 0.147D-01 0.155D+00 0.282D+00
 Coeff:      0.554D+00
 Gap=     0.234 Goal=   None    Shift=    0.000
 RMSDP=3.20D-09 MaxDP=4.60D-08 DE= 3.18D-12 OVMax= 7.13D-08

 SCF Done:  E(RB3LYP) =  -3071.86270425     A.U. after   13 cycles
            NFock= 13  Conv=0.32D-08     -V/T= 2.0056
 KE= 3.054850133463D+03 PE=-7.710196649981D+03 EE= 1.395865640196D+03
 Leave Link  502 at Sun Mar 24 12:58:53 2019, MaxMem=  1048576000 cpu:         4.8
 (Enter /mnt/e/g09/l701.exe)
 Compute integral first derivatives.
 ... and contract with generalized density number  0.
 R6Disp: Adding Grimme-D3 dispersion energy 1st derivatives to the gradient.
 Leave Link  701 at Sun Mar 24 12:58:53 2019, MaxMem=  1048576000 cpu:         0.4
 (Enter /mnt/e/g09/l702.exe)
 L702 exits ... SP integral derivatives will be done elsewhere.
 Leave Link  702 at Sun Mar 24 12:58:53 2019, MaxMem=  1048576000 cpu:         0.0
 (Enter /mnt/e/g09/l703.exe)
 Compute integral first derivatives, UseDBF=F ICtDFT=           0.
 Integral derivatives from FoFJK, PRISM(SPDF).
 Calling FoFJK, ICntrl=      2127 FMM=F ISym2X=0 I1Cent= 0 IOpClX= 0 NMat=1 NMatS=1 NMatT=0.
 FoFJK:  IHMeth= 1 ICntrl=    2127 DoSepK=F KAlg= 0 I1Cent=   0 FoldK=F
 IRaf=         0 NMat=   1 IRICut=       1 DoRegI=T DoRafI=F ISym2E= 0.
 FoFCou: FMM=F IPFlag=           0 FMFlag=      100000 FMFlg1=         800
         NFxFlg=           0 DoJE=F BraDBF=F KetDBF=F FulRan=T
         wScrn=  0.000000 ICntrl=    2127 IOpCl=  0 I1Cent=           0 NGrid=           0
         NMat0=    1 NMatS0=      1 NMatT0=    0 NMatD0=    1 NMtDS0=    0 NMtDT0=    0
 Symmetry not used in FoFCou.
 Leave Link  703 at Sun Mar 24 12:58:54 2019, MaxMem=  1048576000 cpu:         4.6
 (Enter /mnt/e/g09/l716.exe)
 Dipole        =-1.07276571D+00 1.58929308D-01-1.17536980D-02
 ***** Axes restored to original set *****
 -------------------------------------------------------------------
 Center     Atomic                   Forces (Hartrees/Bohr)
 Number     Number              X              Y              Z
 -------------------------------------------------------------------
      1        6           0.081387538    0.010234601    0.032428198
      2        1           0.005246683   -0.023390064   -0.009809963
      3        1          -0.007523321   -0.001626860    0.004670606
      4        1          -0.077962279    0.018221364   -0.033173314
      5       17           0.011613927    0.014693796   -0.023965464
      6       35          -0.012762548   -0.018132836    0.029849937
 -------------------------------------------------------------------
 Cartesian Forces:  Max     0.081387538 RMS     0.031929284
 Leave Link  716 at Sun Mar 24 12:58:54 2019, MaxMem=  1048576000 cpu:         0.1
 (Enter /mnt/e/g09/l103.exe)

 GradGradGradGradGradGradGradGradGradGradGradGradGradGradGradGradGradGrad
 Berny optimization.
 FormGI is forming the generalized inverse of G from B-inverse, IUseBI=4.
 Internal  Forces:  Max     0.085979127 RMS     0.020301290
 Search for a saddle point.
 Step number   2 out of a maximum of   36
 All quantities printed in internal units (Hartrees-Bohrs-Radians)
 Swapping is turned off.
 Update second derivatives using D2CorX and points    1    2
 ITU=  0  0
     Eigenvalues ---   -0.00109   0.00153   0.02565   0.03117   0.06870
     Eigenvalues ---    0.09370   0.10224   0.11466   0.15579   0.36728
     Eigenvalues ---    0.52971   0.86015
 Eigenvectors required to have negative eigenvalues:
                          D1        R4        R5        A9        A8
   1                    0.65124   0.43389  -0.42213   0.23360  -0.18523
                          A3        A4        A6        A7        D5
   1                   -0.17921   0.17108  -0.16104   0.10710   0.07302
 RFO step:  Lambda0=3.006567523D-04 Lambda=-2.78037667D-02.
 Linear search not attempted -- option 19 set.
 Maximum step size (   0.300) exceeded in Quadratic search.
    -- Step size scaled by   0.613
 Iteration  1 RMS(Cart)=  0.05870160 RMS(Int)=  0.00799389
 Iteration  2 RMS(Cart)=  0.00583519 RMS(Int)=  0.00211073
 Iteration  3 RMS(Cart)=  0.00001622 RMS(Int)=  0.00211044
 Iteration  4 RMS(Cart)=  0.00000007 RMS(Int)=  0.00211044
 ITry= 1 IFail=0 DXMaxC= 1.57D-01 DCOld= 1.00D+10 DXMaxT= 3.00D-01 DXLimC= 3.00D+00 Rises=F
 Variable       Old X    -DE/DX   Delta X   Delta X   Delta X     New X
                                 (Linear)    (Quad)   (Total)
    R1        1.97156   0.02423   0.00000   0.02817   0.02817   1.99973
    R2        2.04182  -0.00179   0.00000  -0.00687  -0.00687   2.03495
    R3        1.85360   0.08598   0.00000   0.06375   0.06375   1.91735
    R4        4.06501   0.03042   0.00000   0.23638   0.23638   4.30140
    R5        4.35879   0.03651   0.00000   0.00651   0.00651   4.36530
    A1        1.98266   0.00303   0.00000   0.04290   0.04109   2.02374
    A2        2.20164  -0.00202   0.00000  -0.03360  -0.04091   2.16074
    A3        1.59428   0.00107   0.00000  -0.04747  -0.04824   1.54604
    A4        1.57022  -0.00265   0.00000   0.03454   0.03669   1.60691
    A5        2.09504  -0.00097   0.00000   0.00392   0.00157   2.09661
    A6        1.57291   0.00416   0.00000  -0.03319  -0.03387   1.53904
    A7        1.70082  -0.01167   0.00000  -0.02577  -0.02422   1.67660
    A8        1.62329  -0.00493   0.00000  -0.05638  -0.05714   1.56615
    A9        1.38077   0.01262   0.00000   0.11336   0.11513   1.49590
   A10        3.16450  -0.00159   0.00000  -0.01293  -0.01155   3.15295
   A11        3.29588  -0.00865   0.00000  -0.06602  -0.06615   3.22973
    D1        3.04121   0.00063   0.00000   0.17474   0.17270  -3.06927
    D2       -1.98283  -0.00315   0.00000  -0.04144  -0.04218  -2.02501
    D3        1.98630   0.00201   0.00000   0.04679   0.04479   2.03108
    D4        2.20438  -0.00228   0.00000  -0.04146  -0.04330   2.16109
    D5       -2.21524   0.00327   0.00000   0.05936   0.05544  -2.15980
    D6       -1.71887   0.00180   0.00000   0.02318   0.02124  -1.69762
    D7       -2.09597   0.00087   0.00000  -0.00002  -0.00111  -2.09708
    D8        2.08165   0.00126   0.00000   0.01256   0.01066   2.09231
    D9        2.57802  -0.00021   0.00000  -0.02362  -0.02354   2.55448
   D10        0.49637  -0.00147   0.00000  -0.03618  -0.03420   0.46217
         Item               Value     Threshold  Converged?
 Maximum Force            0.085979     0.000450     NO 
 RMS     Force            0.020301     0.000300     NO 
 Maximum Displacement     0.157281     0.001800     NO 
 RMS     Displacement     0.062078     0.001200     NO 
 Predicted change in Energy=-1.237534D-02
 Lowest energy point so far.  Saving SCF results.
 GradGradGradGradGradGradGradGradGradGradGradGradGradGradGradGradGradGrad

 Leave Link  103 at Sun Mar 24 12:58:54 2019, MaxMem=  1048576000 cpu:         0.1
 (Enter /mnt/e/g09/l202.exe)
                          Input orientation:                          
 ---------------------------------------------------------------------
 Center     Atomic      Atomic             Coordinates (Angstroms)
 Number     Number       Type             X           Y           Z
 ---------------------------------------------------------------------
      1          6           0        0.284297   -0.615692    0.256613
      2          1           0        0.828238   -1.474907   -0.036122
      3          1           0        0.798882    0.067595    0.910771
      4          1           0       -0.642543   -0.389594   -0.088785
      5         17           0        1.200635    0.495525   -1.505946
      6         35           0       -0.810584   -1.775427    1.927672
 ---------------------------------------------------------------------
                    Distance matrix (angstroms):
                    1          2          3          4          5
     1  C    0.000000
     2  H    1.058214   0.000000
     3  H    1.076849   1.810189   0.000000
     4  H    1.014619   1.828626   1.812688   0.000000
     5  Cl   2.276202   2.486295   2.486976   2.487787   0.000000
     6  Br   2.310019   2.575372   2.649755   2.452523   4.581698
                    6
     6  Br   0.000000
 Stoichiometry    CH3BrCl(1-)
 Framework group  C1[X(CH3BrCl)]
 Deg. of freedom    12
 Full point group                 C1      NOp   1
 RotChk:  IX=3 Diff= 1.82D-01
 Largest Abelian subgroup         C1      NOp   1
 Largest concise Abelian subgroup C1      NOp   1
                         Standard orientation:                         
 ---------------------------------------------------------------------
 Center     Atomic      Atomic             Coordinates (Angstroms)
 Number     Number       Type             X           Y           Z
 ---------------------------------------------------------------------
      1          6           0        0.689542    0.080386   -0.018245
      2          1           0        0.722320    0.443192    0.975290
      3          1           0        0.766883    0.823245   -0.793991
      4          1           0        0.650505   -0.904614   -0.258458
      5         17           0        2.963107   -0.026472    0.005779
      6         35           0       -1.618565   -0.011260    0.002525
 ---------------------------------------------------------------------
 Rotational constants (GHZ):    145.1140524      0.9695770      0.9692964
 Leave Link  202 at Sun Mar 24 12:58:54 2019, MaxMem=  1048576000 cpu:         0.0
 (Enter /mnt/e/g09/l301.exe)
 Standard basis: 6-31G(d) (6D, 7F)
 Ernie: Thresh=  0.10000D-02 Tol=  0.10000D-05 Strict=F.
 There are    70 symmetry adapted cartesian basis functions of A   symmetry.
 There are    70 symmetry adapted basis functions of A   symmetry.
    70 basis functions,   175 primitive gaussians,    70 cartesian basis functions
    31 alpha electrons       31 beta electrons
       nuclear repulsion energy       183.0779261417 Hartrees.
 IExCor=  402 DFT=T Ex+Corr=B3LYP ExCW=0 ScaHFX=  0.200000
 ScaDFX=  0.800000  0.720000  1.000000  0.810000 ScalE2=  1.000000  1.000000
 IRadAn=      0 IRanWt=     -1 IRanGd=            0 ICorTp=0 IEmpDi=131
 NAtoms=    6 NActive=    6 NUniq=    6 SFac= 1.00D+00 NAtFMM=   60 NAOKFM=F Big=F
 Integral buffers will be    131072 words long.
 Raffenetti 2 integral format.
 Two-electron integral symmetry is turned on.
 R6Disp:  Grimme-D3 Dispersion energy=       -0.0032194118 Hartrees.
 Nuclear repulsion after empirical dispersion term =      183.0747067299 Hartrees.
 Leave Link  301 at Sun Mar 24 12:58:54 2019, MaxMem=  1048576000 cpu:         0.0
 (Enter /mnt/e/g09/l302.exe)
 NPDir=0 NMtPBC=     1 NCelOv=     1 NCel=       1 NClECP=     1 NCelD=      1
         NCelK=      1 NCelE2=     1 NClLst=     1 CellRange=     0.0.
 One-electron integrals computed using PRISM.
 NBasis=    70 RedAO= T EigKep=  7.59D-04  NBF=    70
 NBsUse=    70 1.00D-06 EigRej= -1.00D+00 NBFU=    70
 Precomputing XC quadrature grid using
 IXCGrd= 4 IRadAn=           0 IRanWt=          -1 IRanGd=           0 AccXCQ= 0.00D+00.
 Generated NRdTot=       0 NPtTot=           0 NUsed=           0 NTot=          32
 NSgBfM=    70    70    70    70    70 MxSgAt=     6 MxSgA2=     6.
 Leave Link  302 at Sun Mar 24 12:58:54 2019, MaxMem=  1048576000 cpu:         0.4
 (Enter /mnt/e/g09/l303.exe)
 DipDrv:  MaxL=1.
 Leave Link  303 at Sun Mar 24 12:58:54 2019, MaxMem=  1048576000 cpu:         0.1
 (Enter /mnt/e/g09/l401.exe)
 Initial guess from the checkpoint file:  "/mnt/e/scratch/Gau-3442.chk"
 B after Tr=     0.000000    0.000000    0.000000
         Rot=    0.997964    0.063775   -0.000115   -0.000549 Ang=   7.31 deg.
 Guess basis will be translated and rotated to current coordinates.
 JPrj=2 DoOrth=T DoCkMO=T.
 Generating alternative initial guess.
 ExpMin= 1.43D-01 ExpMax= 5.74D+05 ExpMxC= 5.74D+03 IAcc=2 IRadAn=         4 AccDes= 0.00D+00
 Harris functional with IExCor=  402 and IRadAn=       4 diagonalized for initial guess.
 HarFok:  IExCor=  402 AccDes= 0.00D+00 IRadAn=         4 IDoV= 1 UseB2=F ITyADJ=14
 ICtDFT=  3500011 ScaDFX=  1.000000  1.000000  1.000000  1.000000
 FoFCou: FMM=F IPFlag=           0 FMFlag=      100000 FMFlg1=           0
         NFxFlg=           0 DoJE=T BraDBF=F KetDBF=T FulRan=T
         wScrn=  0.000000 ICntrl=     500 IOpCl=  0 I1Cent=   200000004 NGrid=           0
         NMat0=    1 NMatS0=      1 NMatT0=    0 NMatD0=    1 NMtDS0=    0 NMtDT0=    0
 Petite list used in FoFCou.
 Harris En= -3072.07318631450    
 Leave Link  401 at Sun Mar 24 12:58:54 2019, MaxMem=  1048576000 cpu:         0.8
 (Enter /mnt/e/g09/l502.exe)
 Closed shell SCF:
 Using DIIS extrapolation, IDIIS=  1040.
 Integral symmetry usage will be decided dynamically.
 Keep R1 ints in memory in canonical form, NReq=4127496.
 IVT=       34339 IEndB=       34339 NGot=  1048576000 MDV=  1045452807
 LenX=  1045452807 LenY=  1045447466
 Requested convergence on RMS density matrix=1.00D-08 within 128 cycles.
 Requested convergence on MAX density matrix=1.00D-06.
 Requested convergence on             energy=1.00D-06.
 No special actions if energy rises.
 FoFCou: FMM=F IPFlag=           0 FMFlag=           0 FMFlg1=           0
         NFxFlg=           0 DoJE=F BraDBF=F KetDBF=F FulRan=T
         wScrn=  0.000000 ICntrl=     600 IOpCl=  0 I1Cent=           0 NGrid=           0
         NMat0=    1 NMatS0=   2485 NMatT0=    0 NMatD0=    1 NMtDS0=    0 NMtDT0=    0
 Symmetry not used in FoFCou.
 Integral accuracy reduced to 1.0D-05 until final iterations.

 Cycle   1  Pass 0  IDiag  1:
 E= -3071.87185420347    
 DIIS: error= 3.73D-03 at cycle   1 NSaved=   1.
 NSaved= 1 IEnMin= 1 EnMin= -3071.87185420347     IErMin= 1 ErrMin= 3.73D-03
 ErrMax= 3.73D-03  0.00D+00 EMaxC= 1.00D-01 BMatC= 2.92D-03 BMatP= 2.92D-03
 IDIUse=3 WtCom= 9.63D-01 WtEn= 3.73D-02
 Coeff-Com:  0.100D+01
 Coeff-En:   0.100D+01
 Coeff:      0.100D+01
 Gap=     1.594 Goal=   None    Shift=    0.000
 GapD=    1.594 DampG=2.000 DampE=1.000 DampFc=2.0000 IDamp=-1.
 RMSDP=1.47D-03 MaxDP=2.28D-02              OVMax= 2.65D-02

 Cycle   2  Pass 0  IDiag  1:
 E= -3071.87480143549     Delta-E=       -0.002947232019 Rises=F Damp=F
 DIIS: error= 1.39D-03 at cycle   2 NSaved=   2.
 NSaved= 2 IEnMin= 2 EnMin= -3071.87480143549     IErMin= 2 ErrMin= 1.39D-03
 ErrMax= 1.39D-03  0.00D+00 EMaxC= 1.00D-01 BMatC= 2.59D-04 BMatP= 2.92D-03
 IDIUse=3 WtCom= 9.86D-01 WtEn= 1.39D-02
 Coeff-Com:  0.968D-01 0.903D+00
 Coeff-En:   0.000D+00 0.100D+01
 Coeff:      0.954D-01 0.905D+00
 Gap=     0.221 Goal=   None    Shift=    0.000
 RMSDP=7.16D-04 MaxDP=1.49D-02 DE=-2.95D-03 OVMax= 2.10D-02

 Cycle   3  Pass 0  IDiag  1:
 E= -3071.87468015025     Delta-E=        0.000121285241 Rises=F Damp=F
 DIIS: error= 1.80D-03 at cycle   3 NSaved=   3.
 NSaved= 3 IEnMin= 2 EnMin= -3071.87480143549     IErMin= 2 ErrMin= 1.39D-03
 ErrMax= 1.80D-03  0.00D+00 EMaxC= 1.00D-01 BMatC= 3.83D-04 BMatP= 2.59D-04
 IDIUse=3 WtCom= 1.91D-01 WtEn= 8.09D-01
 Coeff-Com: -0.746D-02 0.553D+00 0.455D+00
 Coeff-En:   0.000D+00 0.565D+00 0.435D+00
 Coeff:     -0.143D-02 0.563D+00 0.438D+00
 Gap=     0.224 Goal=   None    Shift=    0.000
 RMSDP=3.57D-04 MaxDP=8.65D-03 DE= 1.21D-04 OVMax= 9.91D-03

 Cycle   4  Pass 0  IDiag  1:
 E= -3071.87515832413     Delta-E=       -0.000478173875 Rises=F Damp=F
 DIIS: error= 9.59D-05 at cycle   4 NSaved=   4.
 NSaved= 4 IEnMin= 4 EnMin= -3071.87515832413     IErMin= 4 ErrMin= 9.59D-05
 ErrMax= 9.59D-05  0.00D+00 EMaxC= 1.00D-01 BMatC= 1.60D-06 BMatP= 2.59D-04
 IDIUse=1 WtCom= 1.00D+00 WtEn= 0.00D+00
 Coeff-Com: -0.505D-02 0.132D+00 0.107D+00 0.765D+00
 Coeff:     -0.505D-02 0.132D+00 0.107D+00 0.765D+00
 Gap=     0.224 Goal=   None    Shift=    0.000
 RMSDP=4.76D-05 MaxDP=8.16D-04 DE=-4.78D-04 OVMax= 1.38D-03

 Cycle   5  Pass 0  IDiag  1:
 E= -3071.87515994920     Delta-E=       -0.000001625076 Rises=F Damp=F
 DIIS: error= 7.11D-05 at cycle   5 NSaved=   5.
 NSaved= 5 IEnMin= 5 EnMin= -3071.87515994920     IErMin= 5 ErrMin= 7.11D-05
 ErrMax= 7.11D-05  0.00D+00 EMaxC= 1.00D-01 BMatC= 6.16D-07 BMatP= 1.60D-06
 IDIUse=1 WtCom= 1.00D+00 WtEn= 0.00D+00
 Coeff-Com: -0.292D-02 0.445D-01 0.354D-01 0.393D+00 0.530D+00
 Coeff:     -0.292D-02 0.445D-01 0.354D-01 0.393D+00 0.530D+00
 Gap=     0.224 Goal=   None    Shift=    0.000
 RMSDP=1.97D-05 MaxDP=3.62D-04 DE=-1.63D-06 OVMax= 5.00D-04

 Cycle   6  Pass 0  IDiag  1:
 E= -3071.87516068166     Delta-E=       -0.000000732454 Rises=F Damp=F
 DIIS: error= 2.07D-05 at cycle   6 NSaved=   6.
 NSaved= 6 IEnMin= 6 EnMin= -3071.87516068166     IErMin= 6 ErrMin= 2.07D-05
 ErrMax= 2.07D-05  0.00D+00 EMaxC= 1.00D-01 BMatC= 4.00D-08 BMatP= 6.16D-07
 IDIUse=1 WtCom= 1.00D+00 WtEn= 0.00D+00
 Coeff-Com: -0.303D-03-0.190D-02-0.110D-02 0.705D-01 0.219D+00 0.714D+00
 Coeff:     -0.303D-03-0.190D-02-0.110D-02 0.705D-01 0.219D+00 0.714D+00
 Gap=     0.224 Goal=   None    Shift=    0.000
 RMSDP=4.76D-06 MaxDP=9.51D-05 DE=-7.32D-07 OVMax= 1.28D-04

 Initial convergence to 1.0D-05 achieved.  Increase integral accuracy.
 Cycle   7  Pass 1  IDiag  1:
 E= -3071.87633460537     Delta-E=       -0.001173923715 Rises=F Damp=F
 DIIS: error= 9.23D-05 at cycle   1 NSaved=   1.
 NSaved= 1 IEnMin= 1 EnMin= -3071.87633460537     IErMin= 1 ErrMin= 9.23D-05
 ErrMax= 9.23D-05  0.00D+00 EMaxC= 1.00D-01 BMatC= 2.35D-07 BMatP= 2.35D-07
 IDIUse=1 WtCom= 1.00D+00 WtEn= 0.00D+00
 Coeff-Com:  0.100D+01
 Coeff:      0.100D+01
 Gap=     0.224 Goal=   None    Shift=    0.000
[...]
 Iteration 15 RMS(Cart)=  0.00000201 RMS(Int)=  0.00270333
 Iteration 16 RMS(Cart)=  0.00000200 RMS(Int)=  0.00269749
 Iteration 17 RMS(Cart)=  0.00000199 RMS(Int)=  0.00269167
 Iteration 18 RMS(Cart)=  0.00000199 RMS(Int)=  0.00268587
 Iteration 19 RMS(Cart)=  0.00000198 RMS(Int)=  0.00268010
 Iteration 20 RMS(Cart)=  0.00000197 RMS(Int)=  0.00267436
 Iteration 21 RMS(Cart)=  0.00000196 RMS(Int)=  0.00266864
 Iteration 22 RMS(Cart)=  0.00000195 RMS(Int)=  0.00266294
 Iteration 23 RMS(Cart)=  0.00000194 RMS(Int)=  0.00265727
 Iteration 24 RMS(Cart)=  0.00000194 RMS(Int)=  0.00265163
 Iteration 25 RMS(Cart)=  0.00000193 RMS(Int)=  0.00264601
 Iteration 26 RMS(Cart)=  0.00000192 RMS(Int)=  0.00264041
 Iteration 27 RMS(Cart)=  0.00000191 RMS(Int)=  0.00263484
 Iteration 28 RMS(Cart)=  0.00000190 RMS(Int)=  0.00262929
 Iteration 29 RMS(Cart)=  0.00000189 RMS(Int)=  0.00262376
 Iteration 30 RMS(Cart)=  0.00000189 RMS(Int)=  0.00261826
 Iteration 31 RMS(Cart)=  0.00000188 RMS(Int)=  0.00261278
 Iteration 32 RMS(Cart)=  0.00000187 RMS(Int)=  0.00260732
 Iteration 33 RMS(Cart)=  0.00000186 RMS(Int)=  0.00260189
 Iteration 34 RMS(Cart)=  0.00000185 RMS(Int)=  0.00259648
 Iteration 35 RMS(Cart)=  0.00000185 RMS(Int)=  0.00259109
 Iteration 36 RMS(Cart)=  0.00000184 RMS(Int)=  0.00258572
 Iteration 37 RMS(Cart)=  0.00000183 RMS(Int)=  0.00258038
 Iteration 38 RMS(Cart)=  0.00000182 RMS(Int)=  0.00257506
 Iteration 39 RMS(Cart)=  0.00000182 RMS(Int)=  0.00256976
 Iteration 40 RMS(Cart)=  0.00000181 RMS(Int)=  0.00256449
 Iteration 41 RMS(Cart)=  0.00000180 RMS(Int)=  0.00255923
 Iteration 42 RMS(Cart)=  0.00000179 RMS(Int)=  0.00255400
 Iteration 43 RMS(Cart)=  0.00000179 RMS(Int)=  0.00254879
 Iteration 44 RMS(Cart)=  0.00000178 RMS(Int)=  0.00254360
 Iteration 45 RMS(Cart)=  0.00000177 RMS(Int)=  0.00253843
 Iteration 46 RMS(Cart)=  0.00000176 RMS(Int)=  0.00253328
 Iteration 47 RMS(Cart)=  0.00000176 RMS(Int)=  0.00252816
 Iteration 48 RMS(Cart)=  0.00000175 RMS(Int)=  0.00252305
 Iteration 49 RMS(Cart)=  0.00000174 RMS(Int)=  0.00251797
 Iteration 50 RMS(Cart)=  0.00000174 RMS(Int)=  0.00251290
 Iteration 51 RMS(Cart)=  0.00000173 RMS(Int)=  0.00250786
 Iteration 52 RMS(Cart)=  0.00000172 RMS(Int)=  0.00250284
 Iteration 53 RMS(Cart)=  0.00000172 RMS(Int)=  0.00249783
 Iteration 54 RMS(Cart)=  0.00000171 RMS(Int)=  0.00249285
 Iteration 55 RMS(Cart)=  0.00000170 RMS(Int)=  0.00248789
 Iteration 56 RMS(Cart)=  0.00000169 RMS(Int)=  0.00248295
 Iteration 57 RMS(Cart)=  0.00000169 RMS(Int)=  0.00247802
 Iteration 58 RMS(Cart)=  0.00000168 RMS(Int)=  0.00247312
 Iteration 59 RMS(Cart)=  0.00000167 RMS(Int)=  0.00246824
 Iteration 60 RMS(Cart)=  0.00000167 RMS(Int)=  0.00246337
 Iteration 61 RMS(Cart)=  0.00000166 RMS(Int)=  0.00245853
 Iteration 62 RMS(Cart)=  0.00000165 RMS(Int)=  0.00245370
 Iteration 63 RMS(Cart)=  0.00000165 RMS(Int)=  0.00244890
 Iteration 64 RMS(Cart)=  0.00000164 RMS(Int)=  0.00244411
 Iteration 65 RMS(Cart)=  0.00000164 RMS(Int)=  0.00243934
 Iteration 66 RMS(Cart)=  0.00000163 RMS(Int)=  0.00243459
 Iteration 67 RMS(Cart)=  0.00000162 RMS(Int)=  0.00242986
 Iteration 68 RMS(Cart)=  0.00000162 RMS(Int)=  0.00242515
 Iteration 69 RMS(Cart)=  0.00000161 RMS(Int)=  0.00242045
 Iteration 70 RMS(Cart)=  0.00000160 RMS(Int)=  0.00241578
 Iteration 71 RMS(Cart)=  0.00000160 RMS(Int)=  0.00241112
 Iteration 72 RMS(Cart)=  0.00000159 RMS(Int)=  0.00240648
 Iteration 73 RMS(Cart)=  0.00000158 RMS(Int)=  0.00240186
 Iteration 74 RMS(Cart)=  0.00000158 RMS(Int)=  0.00239726
 Iteration 75 RMS(Cart)=  0.00000157 RMS(Int)=  0.00239267
 Iteration 76 RMS(Cart)=  0.00000157 RMS(Int)=  0.00238810
 Iteration 77 RMS(Cart)=  0.00000156 RMS(Int)=  0.00238355
 Iteration 78 RMS(Cart)=  0.00000155 RMS(Int)=  0.00237902
 Iteration 79 RMS(Cart)=  0.00000155 RMS(Int)=  0.00237450
 Iteration 80 RMS(Cart)=  0.00000154 RMS(Int)=  0.00237000
 Iteration 81 RMS(Cart)=  0.00000154 RMS(Int)=  0.00236552
 Iteration 82 RMS(Cart)=  0.00000153 RMS(Int)=  0.00236106
 Iteration 83 RMS(Cart)=  0.00000153 RMS(Int)=  0.00235661
 Iteration 84 RMS(Cart)=  0.00000152 RMS(Int)=  0.00235218
 Iteration 85 RMS(Cart)=  0.00000151 RMS(Int)=  0.00234777
 Iteration 86 RMS(Cart)=  0.00000151 RMS(Int)=  0.00234337
 Iteration 87 RMS(Cart)=  0.00000150 RMS(Int)=  0.00233899
 Iteration 88 RMS(Cart)=  0.00000150 RMS(Int)=  0.00233463
 Iteration 89 RMS(Cart)=  0.00000149 RMS(Int)=  0.00233028
 Iteration 90 RMS(Cart)=  0.00000149 RMS(Int)=  0.00232595
 Iteration 91 RMS(Cart)=  0.00000148 RMS(Int)=  0.00232163
 Iteration 92 RMS(Cart)=  0.00000147 RMS(Int)=  0.00231733
 Iteration 93 RMS(Cart)=  0.00000147 RMS(Int)=  0.00231305
 Iteration 94 RMS(Cart)=  0.00000146 RMS(Int)=  0.00230879
 Iteration 95 RMS(Cart)=  0.00000146 RMS(Int)=  0.00230453
 Iteration 96 RMS(Cart)=  0.00000145 RMS(Int)=  0.00230030
 Iteration 97 RMS(Cart)=  0.00000145 RMS(Int)=  0.00229608
 Iteration 98 RMS(Cart)=  0.00000144 RMS(Int)=  0.00229188
 Iteration 99 RMS(Cart)=  0.00000144 RMS(Int)=  0.00228769
 Iteration100 RMS(Cart)=  0.00000143 RMS(Int)=  0.00228351
 New curvilinear step not converged.
 ITry= 1 IFail=1 DXMaxC= 6.41D-04 DCOld= 1.00D+10 DXMaxT= 3.00D-01 DXLimC= 3.00D+00 Rises=F
 Iteration  1 RMS(Cart)=  0.00009567 RMS(Int)=  0.00251223
 Iteration  2 RMS(Cart)=  0.00000175 RMS(Int)=  0.00250713
 Iteration  3 RMS(Cart)=  0.00000174 RMS(Int)=  0.00250205
 Iteration  4 RMS(Cart)=  0.00000173 RMS(Int)=  0.00249699
 Iteration  5 RMS(Cart)=  0.00000172 RMS(Int)=  0.00249195
 Iteration  6 RMS(Cart)=  0.00000172 RMS(Int)=  0.00248693
 Iteration  7 RMS(Cart)=  0.00000171 RMS(Int)=  0.00248194
 Iteration  8 RMS(Cart)=  0.00000170 RMS(Int)=  0.00247696
 Iteration  9 RMS(Cart)=  0.00000170 RMS(Int)=  0.00247200
 Iteration 10 RMS(Cart)=  0.00000169 RMS(Int)=  0.00246707
 Iteration 11 RMS(Cart)=  0.00000168 RMS(Int)=  0.00246215
 Iteration 12 RMS(Cart)=  0.00000168 RMS(Int)=  0.00245726
 Iteration 13 RMS(Cart)=  0.00000167 RMS(Int)=  0.00245238
 Iteration 14 RMS(Cart)=  0.00000166 RMS(Int)=  0.00244752
 Iteration 15 RMS(Cart)=  0.00000166 RMS(Int)=  0.00244269
 Iteration 16 RMS(Cart)=  0.00000165 RMS(Int)=  0.00243787
 Iteration 17 RMS(Cart)=  0.00000164 RMS(Int)=  0.00243307
 Iteration 18 RMS(Cart)=  0.00000164 RMS(Int)=  0.00242829
 Iteration 19 RMS(Cart)=  0.00000163 RMS(Int)=  0.00242353
 Iteration 20 RMS(Cart)=  0.00000162 RMS(Int)=  0.00241879
 Iteration 21 RMS(Cart)=  0.00000162 RMS(Int)=  0.00241407
 Iteration 22 RMS(Cart)=  0.00000161 RMS(Int)=  0.00240937
 Iteration 23 RMS(Cart)=  0.00000160 RMS(Int)=  0.00240468
 Iteration 24 RMS(Cart)=  0.00000160 RMS(Int)=  0.00240002
 Iteration 25 RMS(Cart)=  0.00000159 RMS(Int)=  0.00239537
 Iteration 26 RMS(Cart)=  0.00000159 RMS(Int)=  0.00239074
 Iteration 27 RMS(Cart)=  0.00000158 RMS(Int)=  0.00238613
 Iteration 28 RMS(Cart)=  0.00000157 RMS(Int)=  0.00238154
 Iteration 29 RMS(Cart)=  0.00000157 RMS(Int)=  0.00237696
 Iteration 30 RMS(Cart)=  0.00000156 RMS(Int)=  0.00237241
 Iteration 31 RMS(Cart)=  0.00000155 RMS(Int)=  0.00236787
 Iteration 32 RMS(Cart)=  0.00000155 RMS(Int)=  0.00236335
 Iteration 33 RMS(Cart)=  0.00000154 RMS(Int)=  0.00235884
 Iteration 34 RMS(Cart)=  0.00000154 RMS(Int)=  0.00235436
 Iteration 35 RMS(Cart)=  0.00000153 RMS(Int)=  0.00234989
 Iteration 36 RMS(Cart)=  0.00000152 RMS(Int)=  0.00234544
 Iteration 37 RMS(Cart)=  0.00000152 RMS(Int)=  0.00234100
 Iteration 38 RMS(Cart)=  0.00000151 RMS(Int)=  0.00233659
 Iteration 39 RMS(Cart)=  0.00000151 RMS(Int)=  0.00233219
 Iteration 40 RMS(Cart)=  0.00000150 RMS(Int)=  0.00232780
 Iteration 41 RMS(Cart)=  0.00000150 RMS(Int)=  0.00232344
 Iteration 42 RMS(Cart)=  0.00000149 RMS(Int)=  0.00231909
 Iteration 43 RMS(Cart)=  0.00000148 RMS(Int)=  0.00231475
 Iteration 44 RMS(Cart)=  0.00000148 RMS(Int)=  0.00231044
 Iteration 45 RMS(Cart)=  0.00000147 RMS(Int)=  0.00230614
 Iteration 46 RMS(Cart)=  0.00000147 RMS(Int)=  0.00230185
 Iteration 47 RMS(Cart)=  0.00000146 RMS(Int)=  0.00229758
 Iteration 48 RMS(Cart)=  0.00000146 RMS(Int)=  0.00229333
 Iteration 49 RMS(Cart)=  0.00000145 RMS(Int)=  0.00228910
 Iteration 50 RMS(Cart)=  0.00000145 RMS(Int)=  0.00228488
 Iteration 51 RMS(Cart)=  0.00000144 RMS(Int)=  0.00228067
 Iteration 52 RMS(Cart)=  0.00000143 RMS(Int)=  0.00227648
 Iteration 53 RMS(Cart)=  0.00000143 RMS(Int)=  0.00227231
 Iteration 54 RMS(Cart)=  0.00000142 RMS(Int)=  0.00226815
 Iteration 55 RMS(Cart)=  0.00000142 RMS(Int)=  0.00226401
 Iteration 56 RMS(Cart)=  0.00000141 RMS(Int)=  0.00225988
 Iteration 57 RMS(Cart)=  0.00000141 RMS(Int)=  0.00225577
 Iteration 58 RMS(Cart)=  0.00000140 RMS(Int)=  0.00225168
 Iteration 59 RMS(Cart)=  0.00000140 RMS(Int)=  0.00224760
 Iteration 60 RMS(Cart)=  0.00000139 RMS(Int)=  0.00224353
 Iteration 61 RMS(Cart)=  0.00000139 RMS(Int)=  0.00223948
 Iteration 62 RMS(Cart)=  0.00000138 RMS(Int)=  0.00223544
 Iteration 63 RMS(Cart)=  0.00000138 RMS(Int)=  0.00223142
 Iteration 64 RMS(Cart)=  0.00000137 RMS(Int)=  0.00222742
 Iteration 65 RMS(Cart)=  0.00000137 RMS(Int)=  0.00222342
 Iteration 66 RMS(Cart)=  0.00000136 RMS(Int)=  0.00221945
 Iteration 67 RMS(Cart)=  0.00000136 RMS(Int)=  0.00221548
 Iteration 68 RMS(Cart)=  0.00000135 RMS(Int)=  0.00221153
 Iteration 69 RMS(Cart)=  0.00000135 RMS(Int)=  0.00220760
 Iteration 70 RMS(Cart)=  0.00000134 RMS(Int)=  0.00220368
 Iteration 71 RMS(Cart)=  0.00000134 RMS(Int)=  0.00219977
 Iteration 72 RMS(Cart)=  0.00000133 RMS(Int)=  0.00219588
 Iteration 73 RMS(Cart)=  0.00000133 RMS(Int)=  0.00219200
 Iteration 74 RMS(Cart)=  0.00000132 RMS(Int)=  0.00218814
 Iteration 75 RMS(Cart)=  0.00000132 RMS(Int)=  0.00218429
 Iteration 76 RMS(Cart)=  0.00000131 RMS(Int)=  0.00218045
 Iteration 77 RMS(Cart)=  0.00000131 RMS(Int)=  0.00217663
 Iteration 78 RMS(Cart)=  0.00000130 RMS(Int)=  0.00217282
 Iteration 79 RMS(Cart)=  0.00000130 RMS(Int)=  0.00216903
 Iteration 80 RMS(Cart)=  0.00000130 RMS(Int)=  0.00216524
 Iteration 81 RMS(Cart)=  0.00000129 RMS(Int)=  0.00216148
 Iteration 82 RMS(Cart)=  0.00000129 RMS(Int)=  0.00215772
 Iteration 83 RMS(Cart)=  0.00000128 RMS(Int)=  0.00215398
 Iteration 84 RMS(Cart)=  0.00000128 RMS(Int)=  0.00215025
 Iteration 85 RMS(Cart)=  0.00000127 RMS(Int)=  0.00214653
 Iteration 86 RMS(Cart)=  0.00000127 RMS(Int)=  0.00214283
 Iteration 87 RMS(Cart)=  0.00000126 RMS(Int)=  0.00213914
 Iteration 88 RMS(Cart)=  0.00000126 RMS(Int)=  0.00213546
 Iteration 89 RMS(Cart)=  0.00000126 RMS(Int)=  0.00213180
 Iteration 90 RMS(Cart)=  0.00000125 RMS(Int)=  0.00212815
 Iteration 91 RMS(Cart)=  0.00000125 RMS(Int)=  0.00212451
 Iteration 92 RMS(Cart)=  0.00000124 RMS(Int)=  0.00212088
 Iteration 93 RMS(Cart)=  0.00000124 RMS(Int)=  0.00211727
 Iteration 94 RMS(Cart)=  0.00000123 RMS(Int)=  0.00211367
 Iteration 95 RMS(Cart)=  0.00000123 RMS(Int)=  0.00211008
 Iteration 96 RMS(Cart)=  0.00000123 RMS(Int)=  0.00210650
 Iteration 97 RMS(Cart)=  0.00000122 RMS(Int)=  0.00210294
 Iteration 98 RMS(Cart)=  0.00000122 RMS(Int)=  0.00209939
 Iteration 99 RMS(Cart)=  0.00000121 RMS(Int)=  0.00209585
 Iteration100 RMS(Cart)=  0.00000121 RMS(Int)=  0.00209232
 New curvilinear step not converged.
 ITry= 2 IFail=1 DXMaxC= 5.50D-04 DCOld= 1.00D+10 DXMaxT= 3.00D-01 DXLimC= 3.00D+00 Rises=F
 Iteration  1 RMS(Cart)=  0.00008506 RMS(Int)=  0.00223579
 Iteration  2 RMS(Cart)=  0.00002396 RMS(Int)=  0.00216424
 Iteration  3 RMS(Cart)=  0.00002440 RMS(Int)=  0.00209134
 Iteration  4 RMS(Cart)=  0.00002430 RMS(Int)=  0.00201874
 Iteration  5 RMS(Cart)=  0.00002241 RMS(Int)=  0.00195197
 Iteration  6 RMS(Cart)=  0.00002238 RMS(Int)=  0.00188531
 Iteration  7 RMS(Cart)=  0.00002234 RMS(Int)=  0.00181875
 Iteration  8 RMS(Cart)=  0.00002231 RMS(Int)=  0.00175228
 Iteration  9 RMS(Cart)=  0.00002228 RMS(Int)=  0.00168592
 Iteration 10 RMS(Cart)=  0.00002225 RMS(Int)=  0.00161965
 Iteration 11 RMS(Cart)=  0.00002222 RMS(Int)=  0.00155348
 Iteration 12 RMS(Cart)=  0.00002219 RMS(Int)=  0.00148741
 Iteration 13 RMS(Cart)=  0.00002216 RMS(Int)=  0.00142143
 Iteration 14 RMS(Cart)=  0.00002213 RMS(Int)=  0.00135556
 Iteration 15 RMS(Cart)=  0.00002210 RMS(Int)=  0.00128980
 Iteration 16 RMS(Cart)=  0.00002206 RMS(Int)=  0.00122415
 Iteration 17 RMS(Cart)=  0.00002203 RMS(Int)=  0.00115863
 Iteration 18 RMS(Cart)=  0.00002199 RMS(Int)=  0.00109323
 Iteration 19 RMS(Cart)=  0.00002195 RMS(Int)=  0.00102798
 Iteration 20 RMS(Cart)=  0.00002190 RMS(Int)=  0.00096289
 Iteration 21 RMS(Cart)=  0.00002185 RMS(Int)=  0.00089797
 Iteration 22 RMS(Cart)=  0.00002179 RMS(Int)=  0.00083325
 Iteration 23 RMS(Cart)=  0.00002173 RMS(Int)=  0.00076876
 Iteration 24 RMS(Cart)=  0.00002165 RMS(Int)=  0.00070453
 Iteration 25 RMS(Cart)=  0.00002157 RMS(Int)=  0.00064060
 Iteration 26 RMS(Cart)=  0.00002147 RMS(Int)=  0.00057703
 Iteration 27 RMS(Cart)=  0.00002135 RMS(Int)=  0.00051389
 Iteration 28 RMS(Cart)=  0.00002121 RMS(Int)=  0.00045127
 Iteration 29 RMS(Cart)=  0.00002104 RMS(Int)=  0.00038932
 Iteration 30 RMS(Cart)=  0.00002082 RMS(Int)=  0.00032819
 Iteration 31 RMS(Cart)=  0.00002055 RMS(Int)=  0.00026818
 Iteration 32 RMS(Cart)=  0.00002020 RMS(Int)=  0.00020967
 Iteration 33 RMS(Cart)=  0.00001971 RMS(Int)=  0.00015335
 Iteration 34 RMS(Cart)=  0.00001901 RMS(Int)=  0.00010041
 Iteration 35 RMS(Cart)=  0.00001793 RMS(Int)=  0.00005321
 Iteration 36 RMS(Cart)=  0.00001602 RMS(Int)=  0.00001740
 Iteration 37 RMS(Cart)=  0.00001049 RMS(Int)=  0.00000188
 Iteration 38 RMS(Cart)=  0.00000037 RMS(Int)=  0.00000077
 ITry= 3 IFail=0 DXMaxC= 1.96D-03 DCOld= 1.00D+10 DXMaxT= 3.00D-01 DXLimC= 3.00D+00 Rises=F
 Variable       Old X    -DE/DX   Delta X   Delta X   Delta X     New X
                                 (Linear)    (Quad)   (Total)
    R1        2.03067  -0.00009   0.00000  -0.00035  -0.00028   2.03039
    R2        2.03127  -0.00022   0.00000  -0.00055  -0.00044   2.03083
    R3        2.02948   0.00041   0.00000   0.00112   0.00089   2.03037
    R4        4.49432  -0.00006   0.00000  -0.00346  -0.00277   4.49155
    R5        4.72914  -0.00016   0.00000  -0.00047  -0.00038   4.72876
    A1        2.09236   0.00006   0.00000   0.00234   0.00187   2.09423
    A2        2.09434   0.00002   0.00000   0.00043   0.00034   2.09468
    A3        1.57572   0.00002   0.00000   0.00098   0.00079   1.57651
    A4        1.56598  -0.00002   0.00000  -0.00112  -0.00089   1.56509
    A5        2.09637  -0.00008   0.00000  -0.00280  -0.00224   2.09413
    A6        1.57584  -0.00002   0.00000   0.00038   0.00031   1.57614
    A7        1.56607   0.00001   0.00000  -0.00077  -0.00062   1.56546
    A8        1.57532   0.00001   0.00000   0.00111   0.00089   1.57620
    A9        1.56585   0.00000   0.00000  -0.00059  -0.00047   1.56538
   A10        3.14170   0.00000   0.00000  -0.00013  -0.00011   3.14160
   A11        3.14202  -0.00002   0.00000  -0.00052  -0.00042   3.14160
    D1        3.12485  -0.00002   0.00000  -0.00284  -0.00227   3.12258
    D2       -2.09240  -0.00006   0.00000  -0.00235  -0.00188  -2.09428
    D3        2.09240   0.00006   0.00000   0.00235   0.00188   2.09428
    D4        2.09438   0.00002   0.00000   0.00044   0.00035   2.09473
    D5       -2.09438  -0.00002   0.00000  -0.00044  -0.00035  -2.09473
    D6       -1.82517   0.00002   0.00000  -0.00718  -0.00574  -1.83092
    D7       -2.09641   0.00008   0.00000   0.00279   0.00223  -2.09418
    D8        2.09641  -0.00008   0.00000  -0.00279  -0.00223   2.09418
    D9        2.36561  -0.00005   0.00000  -0.00953  -0.00763   2.35799
   D10        0.26920   0.00003   0.00000  -0.00674  -0.00539   0.26381
         Item               Value     Threshold  Converged?
 Maximum Force            0.000410     0.000450     YES
 RMS     Force            0.000105     0.000300     YES
 Maximum Displacement     0.001956     0.001800     NO 
 RMS     Displacement     0.000851     0.001200     YES
 Predicted change in Energy=-1.068435D-06
 GradGradGradGradGradGradGradGradGradGradGradGradGradGradGradGradGradGrad

 Leave Link  103 at Sun Mar 24 12:59:27 2019, MaxMem=  1048576000 cpu:         0.7
 (Enter /mnt/e/g09/l9999.exe)
 1\1\GINC-DESKTOP-P4HQ21A\Freq\RB3LYP\6-31G(d)\C1H3Br1Cl1(1-)\XINYAN\24
 -Mar-2019\0\\#P Geom=AllCheck Guess=TCheck SCRF=Check GenChk RB3LYP/6-
 31G(d) Freq\\Title\\-1,1\C,0.2863360502,-0.6036707297,0.2264779295\H,0
 .7877360484,-1.506268361,-0.0712549583\H,0.7505294628,0.0580725453,0.9
 350249999\H,-0.6835963475,-0.3717820088,-0.1720626083\Cl,1.3159170582,
 0.573299042,-1.565442012\Br,-0.7979972321,-1.8421494277,2.1114608892\\
 Version=ES64L-G09RevD.01\State=1-A\HF=-3071.8853763\RMSD=2.468e-09\RMS
 F=2.299e-04\ZeroPoint=0.0370997\Thermal=0.0419049\Dipole=-0.6085348,-0
 .6961002,1.0598788\DipoleDeriv=0.6479026,0.6625154,-1.0084079,0.662435
 8,0.8257559,-1.1518387,-1.0083609,-1.1518491,1.8223886,0.0163268,-0.04
 21165,0.0834363,-0.0420764,-0.0211114,0.0889822,0.0833701,0.0889956,-0
 .074636,0.0170775,-0.0597055,0.0726113,-0.0596125,-0.0021471,0.07999,0
 .0725569,0.0798072,-0.0942961,-0.0093927,-0.0500793,0.0747689,-0.05020
 74,0.0061165,0.0945197,0.0747641,0.0944695,-0.07618,-0.8580025,-0.2718
 614,0.413968,-0.272099,-0.9310533,0.4734137,0.4142515,0.4733298,-1.340
 5331,-0.8139116,-0.2387527,0.3636233,-0.2384406,-0.8775606,0.4149331,0
 .3634183,0.415247,-1.2367434\Polar=45.4181023,18.7879485,50.4419067,-2
 8.5921729,-32.6722167,78.7157332\PG=C01 [X(C1H3Br1Cl1)]\NImag=1\\0.558
 27395,-0.15716909,0.51394422,0.23930943,0.27185214,0.27866101,-0.11993
 882,0.14151930,0.02680802,0.12014428,0.14125697,-0.27900013,-0.0963806
 1,-0.14013212,0.29064071,0.02690532,-0.09672658,-0.05389550,-0.0410187
 1,0.08646586,0.06587411,-0.10948604,-0.07783524,-0.11109883,0.00940676
 ,0.00885831,0.00994589,0.10945926,-0.07778266,-0.17070836,-0.15362350,
 -0.01187633,-0.00763316,-0.01293231,0.09040326,0.17607790,-0.11077782,
 -0.15330181,-0.17217045,-0.00366247,-0.00103054,-0.00113041,0.10392342
 ,0.14689537,0.19146998,-0.31987105,0.07620708,-0.12875990,-0.00523593,
 -0.00133964,-0.00477711,-0.00446222,0.00430592,-0.00057954,0.33156038,
 0.07639795,-0.05984162,0.00822787,0.01940001,0.00002277,0.01018974,-0.
 01639588,0.00764889,-0.00573997,-0.07148276,0.05931220,-0.12915135,0.0
 0821871,-0.07424372,0.00884615,-0.00174213,0.00590749,-0.01415531,0.00
 617962,-0.00250455,0.12246897,-0.02346482,0.08741855,-0.00482223,0.008
 99897,-0.01368756,-0.00119904,-0.00217684,0.00250279,-0.00141232,-0.00
 163390,0.00299331,-0.00307683,-0.00739426,0.01120965,0.01269567,0.0089
 6648,-0.00247186,-0.01559761,-0.00748233,-0.00429204,0.01134802,-0.001
 12861,-0.00111725,0.00301614,-0.00255448,-0.00309499,0.00484346,0.0066
 5869,0.01435261,-0.01369282,-0.01564478,0.01112166,0.00453960,0.004476
 48,-0.00754986,0.00843897,0.01009431,-0.01072103,0.00372461,0.00468735
 ,-0.00704514,-0.00979838,-0.01136315,0.02428081,-0.00415582,0.00827898
 ,-0.01257116,-0.00317727,-0.00646669,0.00644182,-0.00350545,-0.0034162
 8,0.00810309,0.00108565,-0.00052505,0.00078189,-0.00218526,-0.00445975
 ,0.00678802,0.01193815,0.00833035,-0.00192225,-0.01447829,-0.00142853,
 0.00026185,0.00165527,-0.00390184,-0.00426800,0.01016080,-0.00513612,-
 0.00404725,0.00596516,-0.00445265,-0.00337647,0.00774979,0.00658879,0.
 01335212,-0.01259276,-0.01439767,0.01052700,0.00448741,0.00821093,-0.0
 0920582,0.00294585,0.00338651,-0.00494354,0.00792297,0.00609982,-0.009
 53263,0.00678018,0.00775313,-0.01008643,-0.00954366,-0.01105273,0.0232
 4142\\-0.00065568,0.00011033,-0.00037951,0.00011378,-0.00004916,0.0000
 1515,0.00027362,-0.00000036,0.00014842,0.00038218,-0.00021403,0.000050
 00,0.00000038,0.00009807,-0.00001393,-0.00011428,0.00005516,0.00017988
 \\\@


 ERWIN WITH HIS PSI CAN DO
 CALCULATIONS QUITE A FEW.
 BUT ONE THING HAS NOT BEEN SEEN
 JUST WHAT DOES PSI REALLY MEAN.
 -- WALTER HUCKEL, TRANS. BY FELIX BLOCH
 Job cpu time:       0 days  0 hours  0 minutes 37.9 seconds.
 File lengths (MBytes):  RWF=      8 Int=      0 D2E=      0 Chk=      2 Scr=      1
 Normal termination of Gaussian 09 at Sun Mar 24 12:59:27 2019.
