 Entering Gaussian System, Link 0=g09
 Input=testforce.gjf
 Output=testforce.log
 Initial command:
 /mnt/e/g09/l1.exe "/mnt/e/scratch/Gau-15973.inp" -scrdir="/mnt/e/scratch/"
 Entering Link 1 = /mnt/e/g09/l1.exe PID=     15975.
  
 Copyright (c) 1988,1990,1992,1993,1995,1998,2003,2009,2013,
            Gaussian, Inc.  All Rights Reserved.
  
 This is part of the Gaussian(R) 09 program.  It is based on
 the Gaussian(R) 03 system (copyright 2003, Gaussian, Inc.),
 the Gaussian(R) 98 system (copyright 1998, Gaussian, Inc.),
 the Gaussian(R) 94 system (copyright 1995, Gaussian, Inc.),
 the Gaussian 92(TM) system (copyright 1992, Gaussian, Inc.),
 the Gaussian 90(TM) system (copyright 1990, Gaussian, Inc.),
 the Gaussian 88(TM) system (copyright 1988, Gaussian, Inc.),
 the Gaussian 86(TM) system (copyright 1986, Carnegie Mellon
 University), and the Gaussian 82(TM) system (copyright 1983,
 Carnegie Mellon University). Gaussian is a federally registered
 trademark of Gaussian, Inc.
  
 This software contains proprietary and confidential information,
 including trade secrets, belonging to Gaussian, Inc.
  
 This software is provided under written license and may be
 used, copied, transmitted, or stored only in accord with that
 written license.
  
 The following legend is applicable only to US Government
 contracts under FAR:
  
                    RESTRICTED RIGHTS LEGEND
  
 Use, reproduction and disclosure by the US Government is
 subject to restrictions as set forth in subparagraphs (a)
 and (c) of the Commercial Computer Software - Restricted
 Rights clause in FAR 52.227-19.
  
 Gaussian, Inc.
 340 Quinnipiac St., Bldg. 40, Wallingford CT 06492
  
  
 ---------------------------------------------------------------
 Warning -- This program may not be used in any manner that
 competes with the business of Gaussian, Inc. or will provide
 assistance to any competitor of Gaussian, Inc.  The licensee
 of this program is prohibited from giving any competitor of
 Gaussian, Inc. access to this program.  By using this program,
 the user acknowledges that Gaussian, Inc. is engaged in the
 business of creating and licensing software in the field of
 computational chemistry and represents and warrants to the
 licensee that it is not a competitor of Gaussian, Inc. and that
 it will not use this program in any manner prohibited above.
 ---------------------------------------------------------------
  

 Cite this work as:
 Gaussian 09, Revision D.01,
 M. J. Frisch, G. W. Trucks, H. B. Schlegel, G. E. Scuseria, 
 M. A. Robb, J. R. Cheeseman, G. Scalmani, V. Barone, B. Mennucci, 
 G. A. Petersson, H. Nakatsuji, M. Caricato, X. Li, H. P. Hratchian, 
 A. F. Izmaylov, J. Bloino, G. Zheng, J. L. Sonnenberg, M. Hada, 
 M. Ehara, K. Toyota, R. Fukuda, J. Hasegawa, M. Ishida, T. Nakajima, 
 Y. Honda, O. Kitao, H. Nakai, T. Vreven, J. A. Montgomery, Jr., 
 J. E. Peralta, F. Ogliaro, M. Bearpark, J. J. Heyd, E. Brothers, 
 K. N. Kudin, V. N. Staroverov, T. Keith, R. Kobayashi, J. Normand, 
 K. Raghavachari, A. Rendell, J. C. Burant, S. S. Iyengar, J. Tomasi, 
 M. Cossi, N. Rega, J. M. Millam, M. Klene, J. E. Knox, J. B. Cross, 
 V. Bakken, C. Adamo, J. Jaramillo, R. Gomperts, R. E. Stratmann, 
 O. Yazyev, A. J. Austin, R. Cammi, C. Pomelli, J. W. Ochterski, 
 R. L. Martin, K. Morokuma, V. G. Zakrzewski, G. A. Voth, 
 P. Salvador, J. J. Dannenberg, S. Dapprich, A. D. Daniels, 
 O. Farkas, J. B. Foresman, J. V. Ortiz, J. Cioslowski, 
 and D. J. Fox, Gaussian, Inc., Wallingford CT, 2013.
 
 ******************************************
 Gaussian 09:  ES64L-G09RevD.01 24-Apr-2013
                24-Mar-2019 
 ******************************************
 %nproc=8
 Will use up to    8 processors via shared memory.
 ----------------------------------
 # B3LYP/6-31G* em=gd3 nosymm force
 ----------------------------------
 1/10=7,30=1,38=1/1,3;
 2/12=2,15=1,17=6,18=5,40=1/2;
 3/5=1,6=6,7=1,11=2,16=1,25=1,30=1,71=1,74=-5,124=31/1,2,3;
 4//1;
 5/5=2,38=5/2;
 6/7=2,8=2,9=2,10=2,28=1/1;
 7/29=1,30=1/1,2,3,16;
 1/10=7,30=1/3;
 99//99;
 -----
 Title
 -----
 Symbolic Z-matrix:
 Charge = -1 Multiplicity = 1
 C                     0.77334   0.00041   0.00005 
 H                     0.76812   0.07641   1.07193 
 H                     0.76811   0.89214  -0.60012 
 H                     0.76823  -0.96531  -0.46978 
 Cl                    3.15164  -0.00017  -0.00007 
 Br                   -1.72921  -0.00008  -0.00003 
 

 GradGradGradGradGradGradGradGradGradGradGradGradGradGradGradGradGradGrad
 Berny optimization.
 Initialization pass.
 Trust Radius=3.00D-01 FncErr=1.00D-07 GrdErr=1.00D-07
 Number of steps in this run=      2 maximum allowed number of steps=      2.
 GradGradGradGradGradGradGradGradGradGradGradGradGradGradGradGradGradGrad

                          Input orientation:                          
 ---------------------------------------------------------------------
 Center     Atomic      Atomic             Coordinates (Angstroms)
 Number     Number       Type             X           Y           Z
 ---------------------------------------------------------------------
      1          6           0        0.773343    0.000406    0.000047
      2          1           0        0.768123    0.076412    1.071927
      3          1           0        0.768113    0.892143   -0.600117
      4          1           0        0.768232   -0.965314   -0.469776
      5         17           0        3.151635   -0.000170   -0.000069
      6         35           0       -1.729209   -0.000080   -0.000033
 ---------------------------------------------------------------------
                    Distance matrix (angstroms):
                    1          2          3          4          5
     1  C    0.000000
     2  H    1.074584   0.000000
     3  H    1.074904   1.860416   0.000000
     4  H    1.073953   1.860656   1.862025   0.000000
     5  Cl   2.378292   2.614607   2.614853   2.613951   0.000000
     6  Br   2.502552   2.718753   2.718967   2.718372   4.880844
                    6
     6  Br   0.000000
 Symmetry turned off by external request.
 Stoichiometry    CH3BrCl(1-)
 Framework group  C1[X(CH3BrCl)]
 Deg. of freedom    12
 Full point group                 C1      NOp   1
 Rotational constants (GHZ):    144.7848534      0.8531682      0.8531627
 Standard basis: 6-31G(d) (6D, 7F)
    70 basis functions,   175 primitive gaussians,    70 cartesian basis functions
    31 alpha electrons       31 beta electrons
       nuclear repulsion energy       172.0884068817 Hartrees.
 NAtoms=    6 NActive=    6 NUniq=    6 SFac= 1.00D+00 NAtFMM=   60 NAOKFM=F Big=F
 Integral buffers will be    131072 words long.
 Raffenetti 2 integral format.
 Two-electron integral symmetry is turned off.
 Nuclear repulsion after empirical dispersion term =      172.0844001423 Hartrees.
 One-electron integrals computed using PRISM.
 PrsmSu:  requested number of processors reduced to:   5 ShMem   1 Linda.
 NBasis=    70 RedAO= T EigKep=  7.62D-04  NBF=    70
 NBsUse=    70 1.00D-06 EigRej= -1.00D+00 NBFU=    70
 ExpMin= 1.43D-01 ExpMax= 5.74D+05 ExpMxC= 5.74D+03 IAcc=2 IRadAn=         4 AccDes= 0.00D+00
 Harris functional with IExCor=  402 and IRadAn=       4 diagonalized for initial guess.
 HarFok:  IExCor=  402 AccDes= 0.00D+00 IRadAn=         4 IDoV= 1 UseB2=F ITyADJ=14
 ICtDFT=  3500011 ScaDFX=  1.000000  1.000000  1.000000  1.000000
 FoFCou: FMM=F IPFlag=           0 FMFlag=      100000 FMFlg1=           0
         NFxFlg=           0 DoJE=T BraDBF=F KetDBF=T FulRan=T
         wScrn=  0.000000 ICntrl=     500 IOpCl=  0 I1Cent=   200000004 NGrid=           0
         NMat0=    1 NMatS0=      1 NMatT0=    0 NMatD0=    1 NMtDS0=    0 NMtDT0=    0
 Symmetry not used in FoFCou.
 Keep R1 ints in memory in canonical form, NReq=4126734.
 Requested convergence on RMS density matrix=1.00D-08 within 128 cycles.
 Requested convergence on MAX density matrix=1.00D-06.
 Requested convergence on             energy=1.00D-06.
 No special actions if energy rises.
 Integral accuracy reduced to 1.0D-05 until final iterations.
 Initial convergence to 1.0D-05 achieved.  Increase integral accuracy.
 SCF Done:  E(RB3LYP) =  -3071.88537627     A.U. after   15 cycles
            NFock= 15  Conv=0.77D-08     -V/T= 2.0057

 **********************************************************************

            Population analysis using the SCF density.

 **********************************************************************

 Alpha  occ. eigenvalues -- -482.67116-101.29895 -61.63363 -56.15349 -56.15179
 Alpha  occ. eigenvalues --  -56.15179 -10.09275  -9.21269  -8.34462  -6.97324
 Alpha  occ. eigenvalues --   -6.96901  -6.96901  -6.29392  -6.28842  -6.28842
 Alpha  occ. eigenvalues --   -2.41036  -2.40890  -2.40889  -2.40452  -2.40452
 Alpha  occ. eigenvalues --   -0.58084  -0.53727  -0.49539  -0.29240  -0.29193
 Alpha  occ. eigenvalues --   -0.15189  -0.08914  -0.08912  -0.07476  -0.07473
 Alpha  occ. eigenvalues --   -0.06973
 Alpha virt. eigenvalues --    0.12589   0.24969   0.31724   0.31756   0.45448
 Alpha virt. eigenvalues --    0.56997   0.61414   0.61436   0.64243   0.65036
 Alpha virt. eigenvalues --    0.65041   0.68740   0.68750   0.69851   0.69870
 Alpha virt. eigenvalues --    0.73408   0.78719   0.79289   0.79302   0.89215
 Alpha virt. eigenvalues --    1.05230   1.05311   1.11936   1.11980   1.11983
 Alpha virt. eigenvalues --    1.12933   1.12946   1.33379   1.46033   1.74840
 Alpha virt. eigenvalues --    1.82017   1.82038   2.18411   2.35755   2.35881
 Alpha virt. eigenvalues --    4.31089   4.47828   8.80380  72.43939
          Condensed to atoms (all electrons):
               1          2          3          4          5          6
     1  C    5.073929   0.388032   0.388052   0.388211   0.056861   0.069923
     2  H    0.388032   0.482313  -0.024947  -0.024874  -0.019887  -0.015550
     3  H    0.388052  -0.024947   0.482255  -0.024765  -0.019905  -0.015576
     4  H    0.388211  -0.024874  -0.024765   0.481794  -0.019936  -0.015588
     5  Cl   0.056861  -0.019887  -0.019905  -0.019936  17.643566   0.005069
     6  Br   0.069923  -0.015550  -0.015576  -0.015588   0.005069  35.605904
 Mulliken charges:
               1
     1  C   -0.365008
     2  H    0.214913
     3  H    0.214887
     4  H    0.215158
     5  Cl  -0.645768
     6  Br  -0.634182
 Sum of Mulliken charges =  -1.00000
 Mulliken charges with hydrogens summed into heavy atoms:
               1
     1  C    0.279949
     5  Cl  -0.645768
     6  Br  -0.634182
 Electronic spatial extent (au):  <R**2>=           1130.8673
 Charge=             -1.0000 electrons
 Dipole moment (field-independent basis, Debye):
    X=             -3.5749    Y=              0.0018    Z=              0.0005  Tot=              3.5749
 Quadrupole moment (field-independent basis, Debye-Ang):
   XX=            -82.4130   YY=            -41.2601   ZZ=            -41.2676
   XY=              0.0020   XZ=              0.0013   YZ=              0.0010
 Traceless Quadrupole moment (field-independent basis, Debye-Ang):
   XX=            -27.4328   YY=             13.7202   ZZ=             13.7126
   XY=              0.0020   XZ=              0.0013   YZ=              0.0010
 Octapole moment (field-independent basis, Debye-Ang**2):
  XXX=           -135.4563  YYY=             -0.2043  ZZZ=              0.9599  XYY=            -15.5863
  XXY=              0.0035  XXZ=             -0.0006  XZZ=            -15.5922  YZZ=              0.2052
  YYZ=             -0.9600  XYZ=              0.0007
 Hexadecapole moment (field-independent basis, Debye-Ang**3):
 XXXX=          -1613.3883 YYYY=            -54.2518 ZZZZ=            -54.2544 XXXY=              0.0153
 XXXZ=              0.0042 YYYX=             -0.1526 YYYZ=             -0.0017 ZZZX=              0.7467
 ZZZY=              0.0038 XXYY=           -228.5505 XXZZ=           -228.5559 YYZZ=            -18.0859
 XXYZ=              0.0011 YYXZ=             -0.7438 ZZXY=              0.1611
 N-N= 1.720844001423D+02 E-N=-7.678308765428D+03  KE= 3.054391428587D+03
 PrsmSu:  requested number of processors reduced to:   3 ShMem   1 Linda.
 Calling FoFJK, ICntrl=      2127 FMM=F ISym2X=0 I1Cent= 0 IOpClX= 0 NMat=1 NMatS=1 NMatT=0.
 -------------------------------------------------------------------
 Center     Atomic                   Forces (Hartrees/Bohr)
 Number     Number              X              Y              Z
 -------------------------------------------------------------------
      1        6          -0.000056511    0.000724400    0.000243257
      2        1          -0.000013563   -0.000091443   -0.000084547
      3        1          -0.000006530   -0.000304383   -0.000065475
      4        1          -0.000021951   -0.000298359   -0.000324247
      5       17          -0.000059157   -0.000009154    0.000078882
      6       35           0.000157712   -0.000021062    0.000152129
 -------------------------------------------------------------------
 Cartesian Forces:  Max     0.000724400 RMS     0.000230060

 GradGradGradGradGradGradGradGradGradGradGradGradGradGradGradGradGradGrad
 Berny optimization.
 Search for a local minimum.
 Step number   1 out of a maximum of    2
 All quantities printed in internal units (Hartrees-Bohrs-Radians)
 Second derivative matrix not updated -- first step.
 The second derivative matrix:
                          X1        Y1        Z1        X2        Y2
           X1           0.09823
           Y1          -0.00003   0.72525
           Z1          -0.00001   0.00059   0.72404
           X2          -0.03274   0.00017   0.00234   0.01092
           Y2           0.00012  -0.11758  -0.01766  -0.00013   0.07904
           Z2           0.00162  -0.01765  -0.36530  -0.00172   0.02039
           X3          -0.03273   0.00194  -0.00131   0.01091  -0.00032
           Y3           0.00135  -0.28831   0.11573  -0.00014   0.02160
           Z3          -0.00090   0.11568  -0.19420  -0.00030   0.03210
           X4          -0.03276  -0.00208  -0.00101   0.01091   0.00033
           Y4          -0.00143  -0.31936  -0.09866   0.00009   0.01694
           Z4          -0.00070  -0.09861  -0.16454  -0.00031  -0.03482
           X5           0.00000   0.00000   0.00000   0.00000   0.00000
           Y5           0.00000   0.00000   0.00000   0.00000   0.00000
           Z5           0.00000   0.00000   0.00000   0.00000   0.00000
           X6           0.00000   0.00000   0.00000   0.00000   0.00000
           Y6           0.00000   0.00000   0.00000   0.00000   0.00000
           Z6           0.00000   0.00000   0.00000   0.00000   0.00000
                          Z2        X3        Y3        Z3        X4
           Z2           0.36511
           X3           0.00008   0.01091
           Y3          -0.00153  -0.00144   0.27619
           Z3          -0.00228   0.00096  -0.13369   0.16753
           X4           0.00003   0.01091   0.00023   0.00024   0.01093
           Y4          -0.00120  -0.00019  -0.00948  -0.01409   0.00152
           Z4           0.00247   0.00027   0.01949   0.02895   0.00074
           X5           0.00000   0.00000   0.00000   0.00000   0.00000
           Y5           0.00000   0.00000   0.00000   0.00000   0.00000
           Z5           0.00000   0.00000   0.00000   0.00000   0.00000
           X6           0.00000   0.00000   0.00000   0.00000   0.00000
           Y6           0.00000   0.00000   0.00000   0.00000   0.00000
           Z6           0.00000   0.00000   0.00000   0.00000   0.00000
                          Y4        Z4        X5        Y5        Z5
           Y4           0.31191
           Z4           0.11395   0.13312
           X5           0.00000   0.00000   1.00000
           Y5           0.00000   0.00000   0.00000   1.00000
           Z5           0.00000   0.00000   0.00000   0.00000   1.00000
           X6           0.00000   0.00000   0.00000   0.00000   0.00000
           Y6           0.00000   0.00000   0.00000   0.00000   0.00000
           Z6           0.00000   0.00000   0.00000   0.00000   0.00000
                          X6        Y6        Z6
           X6           1.00000
           Y6           0.00000   1.00000
           Z6           0.00000   0.00000   1.00000
 ITU=  0
     Eigenvalues ---    0.00543   0.00544   0.08293   0.12995   0.12999
     Eigenvalues ---    0.17397   0.17419   0.19215   0.36674   1.00000
     Eigenvalues ---    1.04168   1.04408
 Angle between quadratic step and forces=  69.45 degrees.
 Linear search not attempted -- first point.
 TrRot=  0.000136 -0.000058  0.000610  0.000039  0.000129  0.000039
 Variable       Old X    -DE/DX   Delta X   Delta X   Delta X     New X
                                 (Linear)    (Quad)   (Total)
    X1        1.46141  -0.00006   0.00000  -0.00037  -0.00023   1.46117
    Y1        0.00077   0.00072   0.00000   0.00065   0.00070   0.00147
    Z1        0.00009   0.00024   0.00000  -0.00018   0.00024   0.00033
    X2        1.45154  -0.00001   0.00000  -0.00251  -0.00213   1.44942
    Y2        0.14440  -0.00009   0.00000  -0.00010  -0.00004   0.14435
    Z2        2.02565  -0.00008   0.00000  -0.00027   0.00015   2.02580
    X3        1.45152  -0.00001   0.00000   0.00234   0.00220   1.45372
    Y3        1.68591  -0.00030   0.00000  -0.00086  -0.00080   1.68511
    Z3       -1.13406  -0.00007   0.00000  -0.00124  -0.00082  -1.13487
    X4        1.45175  -0.00002   0.00000  -0.00055  -0.00039   1.45136
    Y4       -1.82418  -0.00030   0.00000   0.00011   0.00016  -1.82402
    Z4       -0.88775  -0.00032   0.00000  -0.00154  -0.00111  -0.88886
    X5        5.95573  -0.00006   0.00000   0.00002   0.00015   5.95588
    Y5       -0.00032  -0.00001   0.00000   0.00003   0.00043   0.00011
    Z5       -0.00013   0.00008   0.00000   0.00024   0.00009  -0.00004
    X6       -3.26773   0.00016   0.00000   0.00026   0.00040  -3.26733
    Y6       -0.00015  -0.00002   0.00000  -0.00015  -0.00046  -0.00061
    Z6       -0.00006   0.00015   0.00000   0.00042   0.00145   0.00139
         Item               Value     Threshold  Converged?
 Maximum Force            0.000724     0.000450     NO 
 RMS     Force            0.000230     0.000300     YES
 Maximum Displacement     0.002201     0.001800     NO 
 RMS     Displacement     0.000926     0.001200     YES
 Predicted change in Energy=-4.110569D-07
 GradGradGradGradGradGradGradGradGradGradGradGradGradGradGradGradGradGrad

 1\1\GINC-DESKTOP-P4HQ21A\Force\RB3LYP\6-31G(d)\C1H3Br1Cl1(1-)\XINYAN\2
 4-Mar-2019\0\\# B3LYP/6-31G* em=gd3 nosymm force\\Title\\-1,1\C,0.7733
 43,0.000406,0.000047\H,0.768123,0.076412,1.071927\H,0.768113,0.892143,
 -0.600117\H,0.768232,-0.965314,-0.469776\Cl,3.151635,-0.00017,-0.00006
 9\Br,-1.729209,-0.00008,-0.000033\\Version=ES64L-G09RevD.01\HF=-3071.8
 853763\RMSD=7.724e-09\RMSF=2.301e-04\Dipole=-1.4064913,0.0007006,0.000
 2072\Quadrupole=-20.3955983,10.2006051,10.1949933,0.001459,0.0009629,0
 .0007096\PG=C01 [X(C1H3Br1Cl1)]\\@


 "TIGER, TIGER BURNING BRIGHT
 IN THE FOREST OF THE NIGHT.
 WHAT IMMORTAL HAND OR EYE
 CAN FRAME THY FEARFUL SYMMETRYE?"
                     - WILLIAM BLAKE
 Job cpu time:       0 days  0 hours  0 minutes 13.3 seconds.
 File lengths (MBytes):  RWF=      5 Int=      0 D2E=      0 Chk=      1 Scr=      1
 Normal termination of Gaussian 09 at Sun Mar 24 13:38:24 2019.
